 VARIABLES = "X", "Y", "P", "GradP_X", "GradP_Y", "GradP_X_Err", "GradP_Y_Err","Vx", "Vy", "divV", "divV_Exact", "divV_Err", "LaplP", "LaplP_Exact", "LaplP_Err","rotV", "rotV_exact", "rotV_Err"
 ZONE I=          21 , J=          21 , DATAPACKING=BLOCK, VARLOCATION=([3-30]=CELLCENTERED)
     0.0000000     0.0500000     0.1000000     0.1500000     0.2000000     0.2500000     0.3000000     0.3500000     0.4000000     0.4500000     0.5000000     0.5500000     0.6000000     0.6500000     0.7000000     0.7500000     0.8000000     0.8500000     0.9000000     0.9500000     1.0000000     0.0000000     0.0500000     0.1000000     0.1500000     0.2000000     0.2500000     0.3000000     0.3500000     0.4000000     0.4500000     0.5000000     0.5500000     0.6000000     0.6500000     0.7000000     0.7500000     0.8000000     0.8500000     0.9000000     0.9500000     1.0000000     0.0000000     0.0500000     0.1000000     0.1500000     0.2000000     0.2500000     0.3000000     0.3500000     0.4000000     0.4500000     0.5000000     0.5500000     0.6000000     0.6500000     0.7000000     0.7500000     0.8000000     0.8500000     0.9000000     0.9500000     1.0000000     0.0000000     0.0500000     0.1000000     0.1500000     0.2000000     0.2500000     0.3000000     0.3500000     0.4000000     0.4500000     0.5000000     0.5500000     0.6000000     0.6500000     0.7000000     0.7500000     0.8000000     0.8500000     0.9000000     0.9500000     1.0000000     0.0000000     0.0500000     0.1000000     0.1500000     0.2000000     0.2500000     0.3000000     0.3500000     0.4000000     0.4500000     0.5000000     0.5500000     0.6000000     0.6500000     0.7000000     0.7500000
     0.8000000     0.8500000     0.9000000     0.9500000     1.0000000     0.0000000     0.0500000     0.1000000     0.1500000     0.2000000     0.2500000     0.3000000     0.3500000     0.4000000     0.4500000     0.5000000     0.5500000     0.6000000     0.6500000     0.7000000     0.7500000     0.8000000     0.8500000     0.9000000     0.9500000     1.0000000     0.0000000     0.0500000     0.1000000     0.1500000     0.2000000     0.2500000     0.3000000     0.3500000     0.4000000     0.4500000     0.5000000     0.5500000     0.6000000     0.6500000     0.7000000     0.7500000     0.8000000     0.8500000     0.9000000     0.9500000     1.0000000     0.0000000     0.0500000     0.1000000     0.1500000     0.2000000     0.2500000     0.3000000     0.3500000     0.4000000     0.4500000     0.5000000     0.5500000     0.6000000     0.6500000     0.7000000     0.7500000     0.8000000     0.8500000     0.9000000     0.9500000     1.0000000     0.0000000     0.0500000     0.1000000     0.1500000     0.2000000     0.2500000     0.3000000     0.3500000     0.4000000     0.4500000     0.5000000     0.5500000     0.6000000     0.6500000     0.7000000     0.7500000     0.8000000     0.8500000     0.9000000     0.9500000     1.0000000     0.0000000     0.0500000     0.1000000     0.1500000     0.2000000     0.2500000     0.3000000     0.3500000     0.4000000     0.4500000     0.5000000
     0.5500000     0.6000000     0.6500000     0.7000000     0.7500000     0.8000000     0.8500000     0.9000000     0.9500000     1.0000000     0.0000000     0.0500000     0.1000000     0.1500000     0.2000000     0.2500000     0.3000000     0.3500000     0.4000000     0.4500000     0.5000000     0.5500000     0.6000000     0.6500000     0.7000000     0.7500000     0.8000000     0.8500000     0.9000000     0.9500000     1.0000000     0.0000000     0.0500000     0.1000000     0.1500000     0.2000000     0.2500000     0.3000000     0.3500000     0.4000000     0.4500000     0.5000000     0.5500000     0.6000000     0.6500000     0.7000000     0.7500000     0.8000000     0.8500000     0.9000000     0.9500000     1.0000000     0.0000000     0.0500000     0.1000000     0.1500000     0.2000000     0.2500000     0.3000000     0.3500000     0.4000000     0.4500000     0.5000000     0.5500000     0.6000000     0.6500000     0.7000000     0.7500000     0.8000000     0.8500000     0.9000000     0.9500000     1.0000000     0.0000000     0.0500000     0.1000000     0.1500000     0.2000000     0.2500000     0.3000000     0.3500000     0.4000000     0.4500000     0.5000000     0.5500000     0.6000000     0.6500000     0.7000000     0.7500000     0.8000000     0.8500000     0.9000000     0.9500000     1.0000000     0.0000000     0.0500000     0.1000000     0.1500000     0.2000000     0.2500000
     0.3000000     0.3500000     0.4000000     0.4500000     0.5000000     0.5500000     0.6000000     0.6500000     0.7000000     0.7500000     0.8000000     0.8500000     0.9000000     0.9500000     1.0000000     0.0000000     0.0500000     0.1000000     0.1500000     0.2000000     0.2500000     0.3000000     0.3500000     0.4000000     0.4500000     0.5000000     0.5500000     0.6000000     0.6500000     0.7000000     0.7500000     0.8000000     0.8500000     0.9000000     0.9500000     1.0000000     0.0000000     0.0500000     0.1000000     0.1500000     0.2000000     0.2500000     0.3000000     0.3500000     0.4000000     0.4500000     0.5000000     0.5500000     0.6000000     0.6500000     0.7000000     0.7500000     0.8000000     0.8500000     0.9000000     0.9500000     1.0000000     0.0000000     0.0500000     0.1000000     0.1500000     0.2000000     0.2500000     0.3000000     0.3500000     0.4000000     0.4500000     0.5000000     0.5500000     0.6000000     0.6500000     0.7000000     0.7500000     0.8000000     0.8500000     0.9000000     0.9500000     1.0000000     0.0000000     0.0500000     0.1000000     0.1500000     0.2000000     0.2500000     0.3000000     0.3500000     0.4000000     0.4500000     0.5000000     0.5500000     0.6000000     0.6500000     0.7000000     0.7500000     0.8000000     0.8500000     0.9000000     0.9500000     1.0000000     0.0000000
     0.0500000     0.1000000     0.1500000     0.2000000     0.2500000     0.3000000     0.3500000     0.4000000     0.4500000     0.5000000     0.5500000     0.6000000     0.6500000     0.7000000     0.7500000     0.8000000     0.8500000     0.9000000     0.9500000     1.0000000     0.0000000     0.0500000     0.1000000     0.1500000     0.2000000     0.2500000     0.3000000     0.3500000     0.4000000     0.4500000     0.5000000     0.5500000     0.6000000     0.6500000     0.7000000     0.7500000     0.8000000     0.8500000     0.9000000     0.9500000     1.0000000
     0.0000000     0.0000000     0.0000000     0.0000000     0.0000000     0.0000000     0.0000000     0.0000000     0.0000000     0.0000000     0.0000000     0.0000000     0.0000000     0.0000000     0.0000000     0.0000000     0.0000000     0.0000000     0.0000000     0.0000000     0.0000000     0.0500000     0.0500000     0.0500000     0.0500000     0.0500000     0.0500000     0.0500000     0.0500000     0.0500000     0.0500000     0.0500000     0.0500000     0.0500000     0.0500000     0.0500000     0.0500000     0.0500000     0.0500000     0.0500000     0.0500000     0.0500000     0.1000000     0.1000000     0.1000000     0.1000000     0.1000000     0.1000000     0.1000000     0.1000000     0.1000000     0.1000000     0.1000000     0.1000000     0.1000000     0.1000000     0.1000000     0.1000000     0.1000000     0.1000000     0.1000000     0.1000000     0.1000000     0.1500000     0.1500000     0.1500000     0.1500000     0.1500000     0.1500000     0.1500000     0.1500000     0.1500000     0.1500000     0.1500000     0.1500000     0.1500000     0.1500000     0.1500000     0.1500000     0.1500000     0.1500000     0.1500000     0.1500000     0.1500000     0.2000000     0.2000000     0.2000000     0.2000000     0.2000000     0.2000000     0.2000000     0.2000000     0.2000000     0.2000000     0.2000000     0.2000000     0.2000000     0.2000000     0.2000000     0.2000000
     0.2000000     0.2000000     0.2000000     0.2000000     0.2000000     0.2500000     0.2500000     0.2500000     0.2500000     0.2500000     0.2500000     0.2500000     0.2500000     0.2500000     0.2500000     0.2500000     0.2500000     0.2500000     0.2500000     0.2500000     0.2500000     0.2500000     0.2500000     0.2500000     0.2500000     0.2500000     0.3000000     0.3000000     0.3000000     0.3000000     0.3000000     0.3000000     0.3000000     0.3000000     0.3000000     0.3000000     0.3000000     0.3000000     0.3000000     0.3000000     0.3000000     0.3000000     0.3000000     0.3000000     0.3000000     0.3000000     0.3000000     0.3500000     0.3500000     0.3500000     0.3500000     0.3500000     0.3500000     0.3500000     0.3500000     0.3500000     0.3500000     0.3500000     0.3500000     0.3500000     0.3500000     0.3500000     0.3500000     0.3500000     0.3500000     0.3500000     0.3500000     0.3500000     0.4000000     0.4000000     0.4000000     0.4000000     0.4000000     0.4000000     0.4000000     0.4000000     0.4000000     0.4000000     0.4000000     0.4000000     0.4000000     0.4000000     0.4000000     0.4000000     0.4000000     0.4000000     0.4000000     0.4000000     0.4000000     0.4500000     0.4500000     0.4500000     0.4500000     0.4500000     0.4500000     0.4500000     0.4500000     0.4500000     0.4500000     0.4500000
     0.4500000     0.4500000     0.4500000     0.4500000     0.4500000     0.4500000     0.4500000     0.4500000     0.4500000     0.4500000     0.5000000     0.5000000     0.5000000     0.5000000     0.5000000     0.5000000     0.5000000     0.5000000     0.5000000     0.5000000     0.5000000     0.5000000     0.5000000     0.5000000     0.5000000     0.5000000     0.5000000     0.5000000     0.5000000     0.5000000     0.5000000     0.5500000     0.5500000     0.5500000     0.5500000     0.5500000     0.5500000     0.5500000     0.5500000     0.5500000     0.5500000     0.5500000     0.5500000     0.5500000     0.5500000     0.5500000     0.5500000     0.5500000     0.5500000     0.5500000     0.5500000     0.5500000     0.6000000     0.6000000     0.6000000     0.6000000     0.6000000     0.6000000     0.6000000     0.6000000     0.6000000     0.6000000     0.6000000     0.6000000     0.6000000     0.6000000     0.6000000     0.6000000     0.6000000     0.6000000     0.6000000     0.6000000     0.6000000     0.6500000     0.6500000     0.6500000     0.6500000     0.6500000     0.6500000     0.6500000     0.6500000     0.6500000     0.6500000     0.6500000     0.6500000     0.6500000     0.6500000     0.6500000     0.6500000     0.6500000     0.6500000     0.6500000     0.6500000     0.6500000     0.7000000     0.7000000     0.7000000     0.7000000     0.7000000     0.7000000
     0.7000000     0.7000000     0.7000000     0.7000000     0.7000000     0.7000000     0.7000000     0.7000000     0.7000000     0.7000000     0.7000000     0.7000000     0.7000000     0.7000000     0.7000000     0.7500000     0.7500000     0.7500000     0.7500000     0.7500000     0.7500000     0.7500000     0.7500000     0.7500000     0.7500000     0.7500000     0.7500000     0.7500000     0.7500000     0.7500000     0.7500000     0.7500000     0.7500000     0.7500000     0.7500000     0.7500000     0.8000000     0.8000000     0.8000000     0.8000000     0.8000000     0.8000000     0.8000000     0.8000000     0.8000000     0.8000000     0.8000000     0.8000000     0.8000000     0.8000000     0.8000000     0.8000000     0.8000000     0.8000000     0.8000000     0.8000000     0.8000000     0.8500000     0.8500000     0.8500000     0.8500000     0.8500000     0.8500000     0.8500000     0.8500000     0.8500000     0.8500000     0.8500000     0.8500000     0.8500000     0.8500000     0.8500000     0.8500000     0.8500000     0.8500000     0.8500000     0.8500000     0.8500000     0.9000000     0.9000000     0.9000000     0.9000000     0.9000000     0.9000000     0.9000000     0.9000000     0.9000000     0.9000000     0.9000000     0.9000000     0.9000000     0.9000000     0.9000000     0.9000000     0.9000000     0.9000000     0.9000000     0.9000000     0.9000000     0.9500000
     0.9500000     0.9500000     0.9500000     0.9500000     0.9500000     0.9500000     0.9500000     0.9500000     0.9500000     0.9500000     0.9500000     0.9500000     0.9500000     0.9500000     0.9500000     0.9500000     0.9500000     0.9500000     0.9500000     0.9500000     1.0000000     1.0000000     1.0000000     1.0000000     1.0000000     1.0000000     1.0000000     1.0000000     1.0000000     1.0000000     1.0000000     1.0000000     1.0000000     1.0000000     1.0000000     1.0000000     1.0000000     1.0000000     1.0000000     1.0000000     1.0000000
     0.0525000     0.1100000     0.1725000     0.2400000     0.3125000     0.3900000     0.4725000     0.5600000     0.6525000     0.7500000     0.8525000     0.9600000     1.0725000     1.1900000     1.3125000     1.4400000     1.5725000     1.7100000     1.8525000     2.0000000     0.1100000     0.1725000     0.2400000     0.3125000     0.3900000     0.4725000     0.5600000     0.6525000     0.7500000     0.8525000     0.9600000     1.0725000     1.1900000     1.3125000     1.4400000     1.5725000     1.7100000     1.8525000     2.0000000     2.1525000     0.1725000     0.2400000     0.3125000     0.3900000     0.4725000     0.5600000     0.6525000     0.7500000     0.8525000     0.9600000     1.0725000     1.1900000     1.3125000     1.4400000     1.5725000     1.7100000     1.8525000     2.0000000     2.1525000     2.3100000     0.2400000     0.3125000     0.3900000     0.4725000     0.5600000     0.6525000     0.7500000     0.8525000     0.9600000     1.0725000     1.1900000     1.3125000     1.4400000     1.5725000     1.7100000     1.8525000     2.0000000     2.1525000     2.3100000     2.4725000     0.3125000     0.3900000     0.4725000     0.5600000     0.6525000     0.7500000     0.8525000     0.9600000     1.0725000     1.1900000     1.3125000     1.4400000     1.5725000     1.7100000     1.8525000     2.0000000     2.1525000     2.3100000     2.4725000     2.6400000
     0.3900000     0.4725000     0.5600000     0.6525000     0.7500000     0.8525000     0.9600000     1.0725000     1.1900000     1.3125000     1.4400000     1.5725000     1.7100000     1.8525000     2.0000000     2.1525000     2.3100000     2.4725000     2.6400000     2.8125000     0.4725000     0.5600000     0.6525000     0.7500000     0.8525000     0.9600000     1.0725000     1.1900000     1.3125000     1.4400000     1.5725000     1.7100000     1.8525000     2.0000000     2.1525000     2.3100000     2.4725000     2.6400000     2.8125000     2.9900000     0.5600000     0.6525000     0.7500000     0.8525000     0.9600000     1.0725000     1.1900000     1.3125000     1.4400000     1.5725000     1.7100000     1.8525000     2.0000000     2.1525000     2.3100000     2.4725000     2.6400000     2.8125000     2.9900000     3.1725000     0.6525000     0.7500000     0.8525000     0.9600000     1.0725000     1.1900000     1.3125000     1.4400000     1.5725000     1.7100000     1.8525000     2.0000000     2.1525000     2.3100000     2.4725000     2.6400000     2.8125000     2.9900000     3.1725000     3.3600000     0.7500000     0.8525000     0.9600000     1.0725000     1.1900000     1.3125000     1.4400000     1.5725000     1.7100000     1.8525000     2.0000000     2.1525000     2.3100000     2.4725000     2.6400000     2.8125000     2.9900000     3.1725000     3.3600000     3.5525000
     0.8525000     0.9600000     1.0725000     1.1900000     1.3125000     1.4400000     1.5725000     1.7100000     1.8525000     2.0000000     2.1525000     2.3100000     2.4725000     2.6400000     2.8125000     2.9900000     3.1725000     3.3600000     3.5525000     3.7500000     0.9600000     1.0725000     1.1900000     1.3125000     1.4400000     1.5725000     1.7100000     1.8525000     2.0000000     2.1525000     2.3100000     2.4725000     2.6400000     2.8125000     2.9900000     3.1725000     3.3600000     3.5525000     3.7500000     3.9525000     1.0725000     1.1900000     1.3125000     1.4400000     1.5725000     1.7100000     1.8525000     2.0000000     2.1525000     2.3100000     2.4725000     2.6400000     2.8125000     2.9900000     3.1725000     3.3600000     3.5525000     3.7500000     3.9525000     4.1600000     1.1900000     1.3125000     1.4400000     1.5725000     1.7100000     1.8525000     2.0000000     2.1525000     2.3100000     2.4725000     2.6400000     2.8125000     2.9900000     3.1725000     3.3600000     3.5525000     3.7500000     3.9525000     4.1600000     4.3725000     1.3125000     1.4400000     1.5725000     1.7100000     1.8525000     2.0000000     2.1525000     2.3100000     2.4725000     2.6400000     2.8125000     2.9900000     3.1725000     3.3600000     3.5525000     3.7500000     3.9525000     4.1600000     4.3725000     4.5900000
     1.4400000     1.5725000     1.7100000     1.8525000     2.0000000     2.1525000     2.3100000     2.4725000     2.6400000     2.8125000     2.9900000     3.1725000     3.3600000     3.5525000     3.7500000     3.9525000     4.1600000     4.3725000     4.5900000     4.8125000     1.5725000     1.7100000     1.8525000     2.0000000     2.1525000     2.3100000     2.4725000     2.6400000     2.8125000     2.9900000     3.1725000     3.3600000     3.5525000     3.7500000     3.9525000     4.1600000     4.3725000     4.5900000     4.8125000     5.0400000     1.7100000     1.8525000     2.0000000     2.1525000     2.3100000     2.4725000     2.6400000     2.8125000     2.9900000     3.1725000     3.3600000     3.5525000     3.7500000     3.9525000     4.1600000     4.3725000     4.5900000     4.8125000     5.0400000     5.2725000     1.8525000     2.0000000     2.1525000     2.3100000     2.4725000     2.6400000     2.8125000     2.9900000     3.1725000     3.3600000     3.5525000     3.7500000     3.9525000     4.1600000     4.3725000     4.5900000     4.8125000     5.0400000     5.2725000     5.5100000     2.0000000     2.1525000     2.3100000     2.4725000     2.6400000     2.8125000     2.9900000     3.1725000     3.3600000     3.5525000     3.7500000     3.9525000     4.1600000     4.3725000     4.5900000     4.8125000     5.0400000     5.2725000     5.5100000     5.7525000
     1.1125000     1.2000000     1.3000000     1.4000000     1.5000000     1.6000000     1.7000000     1.8000000     1.9000000     2.0000000     2.1000000     2.2000000     2.3000000     2.4000000     2.5000000     2.6000000     2.7000000     2.8000000     2.9000000     2.9875000     1.2125000     1.3000000     1.4000000     1.5000000     1.6000000     1.7000000     1.8000000     1.9000000     2.0000000     2.1000000     2.2000000     2.3000000     2.4000000     2.5000000     2.6000000     2.7000000     2.8000000     2.9000000     3.0000000     3.0875000     1.3125000     1.4000000     1.5000000     1.6000000     1.7000000     1.8000000     1.9000000     2.0000000     2.1000000     2.2000000     2.3000000     2.4000000     2.5000000     2.6000000     2.7000000     2.8000000     2.9000000     3.0000000     3.1000000     3.1875000     1.4125000     1.5000000     1.6000000     1.7000000     1.8000000     1.9000000     2.0000000     2.1000000     2.2000000     2.3000000     2.4000000     2.5000000     2.6000000     2.7000000     2.8000000     2.9000000     3.0000000     3.1000000     3.2000000     3.2875000     1.5125000     1.6000000     1.7000000     1.8000000     1.9000000     2.0000000     2.1000000     2.2000000     2.3000000     2.4000000     2.5000000     2.6000000     2.7000000     2.8000000     2.9000000     3.0000000     3.1000000     3.2000000     3.3000000     3.3875000
     1.6125000     1.7000000     1.8000000     1.9000000     2.0000000     2.1000000     2.2000000     2.3000000     2.4000000     2.5000000     2.6000000     2.7000000     2.8000000     2.9000000     3.0000000     3.1000000     3.2000000     3.3000000     3.4000000     3.4875000     1.7125000     1.8000000     1.9000000     2.0000000     2.1000000     2.2000000     2.3000000     2.4000000     2.5000000     2.6000000     2.7000000     2.8000000     2.9000000     3.0000000     3.1000000     3.2000000     3.3000000     3.4000000     3.5000000     3.5875000     1.8125000     1.9000000     2.0000000     2.1000000     2.2000000     2.3000000     2.4000000     2.5000000     2.6000000     2.7000000     2.8000000     2.9000000     3.0000000     3.1000000     3.2000000     3.3000000     3.4000000     3.5000000     3.6000000     3.6875000     1.9125000     2.0000000     2.1000000     2.2000000     2.3000000     2.4000000     2.5000000     2.6000000     2.7000000     2.8000000     2.9000000     3.0000000     3.1000000     3.2000000     3.3000000     3.4000000     3.5000000     3.6000000     3.7000000     3.7875000     2.0125000     2.1000000     2.2000000     2.3000000     2.4000000     2.5000000     2.6000000     2.7000000     2.8000000     2.9000000     3.0000000     3.1000000     3.2000000     3.3000000     3.4000000     3.5000000     3.6000000     3.7000000     3.8000000     3.8875000
     2.1125000     2.2000000     2.3000000     2.4000000     2.5000000     2.6000000     2.7000000     2.8000000     2.9000000     3.0000000     3.1000000     3.2000000     3.3000000     3.4000000     3.5000000     3.6000000     3.7000000     3.8000000     3.9000000     3.9875000     2.2125000     2.3000000     2.4000000     2.5000000     2.6000000     2.7000000     2.8000000     2.9000000     3.0000000     3.1000000     3.2000000     3.3000000     3.4000000     3.5000000     3.6000000     3.7000000     3.8000000     3.9000000     4.0000000     4.0875000     2.3125000     2.4000000     2.5000000     2.6000000     2.7000000     2.8000000     2.9000000     3.0000000     3.1000000     3.2000000     3.3000000     3.4000000     3.5000000     3.6000000     3.7000000     3.8000000     3.9000000     4.0000000     4.1000000     4.1875000     2.4125000     2.5000000     2.6000000     2.7000000     2.8000000     2.9000000     3.0000000     3.1000000     3.2000000     3.3000000     3.4000000     3.5000000     3.6000000     3.7000000     3.8000000     3.9000000     4.0000000     4.1000000     4.2000000     4.2875000     2.5125000     2.6000000     2.7000000     2.8000000     2.9000000     3.0000000     3.1000000     3.2000000     3.3000000     3.4000000     3.5000000     3.6000000     3.7000000     3.8000000     3.9000000     4.0000000     4.1000000     4.2000000     4.3000000     4.3875000
     2.6125000     2.7000000     2.8000000     2.9000000     3.0000000     3.1000000     3.2000000     3.3000000     3.4000000     3.5000000     3.6000000     3.7000000     3.8000000     3.9000000     4.0000000     4.1000000     4.2000000     4.3000000     4.4000000     4.4875000     2.7125000     2.8000000     2.9000000     3.0000000     3.1000000     3.2000000     3.3000000     3.4000000     3.5000000     3.6000000     3.7000000     3.8000000     3.9000000     4.0000000     4.1000000     4.2000000     4.3000000     4.4000000     4.5000000     4.5875000     2.8125000     2.9000000     3.0000000     3.1000000     3.2000000     3.3000000     3.4000000     3.5000000     3.6000000     3.7000000     3.8000000     3.9000000     4.0000000     4.1000000     4.2000000     4.3000000     4.4000000     4.5000000     4.6000000     4.6875000     2.9125000     3.0000000     3.1000000     3.2000000     3.3000000     3.4000000     3.5000000     3.6000000     3.7000000     3.8000000     3.9000000     4.0000000     4.1000000     4.2000000     4.3000000     4.4000000     4.5000000     4.6000000     4.7000000     4.7875000     3.0125000     3.1000000     3.2000000     3.3000000     3.4000000     3.5000000     3.6000000     3.7000000     3.8000000     3.9000000     4.0000000     4.1000000     4.2000000     4.3000000     4.4000000     4.5000000     4.6000000     4.7000000     4.8000000     4.8875000
     1.1125000     1.2125000     1.3125000     1.4125000     1.5125000     1.6125000     1.7125000     1.8125000     1.9125000     2.0125000     2.1125000     2.2125000     2.3125000     2.4125000     2.5125000     2.6125000     2.7125000     2.8125000     2.9125000     3.0125000     1.2000000     1.3000000     1.4000000     1.5000000     1.6000000     1.7000000     1.8000000     1.9000000     2.0000000     2.1000000     2.2000000     2.3000000     2.4000000     2.5000000     2.6000000     2.7000000     2.8000000     2.9000000     3.0000000     3.1000000     1.3000000     1.4000000     1.5000000     1.6000000     1.7000000     1.8000000     1.9000000     2.0000000     2.1000000     2.2000000     2.3000000     2.4000000     2.5000000     2.6000000     2.7000000     2.8000000     2.9000000     3.0000000     3.1000000     3.2000000     1.4000000     1.5000000     1.6000000     1.7000000     1.8000000     1.9000000     2.0000000     2.1000000     2.2000000     2.3000000     2.4000000     2.5000000     2.6000000     2.7000000     2.8000000     2.9000000     3.0000000     3.1000000     3.2000000     3.3000000     1.5000000     1.6000000     1.7000000     1.8000000     1.9000000     2.0000000     2.1000000     2.2000000     2.3000000     2.4000000     2.5000000     2.6000000     2.7000000     2.8000000     2.9000000     3.0000000     3.1000000     3.2000000     3.3000000     3.4000000
     1.6000000     1.7000000     1.8000000     1.9000000     2.0000000     2.1000000     2.2000000     2.3000000     2.4000000     2.5000000     2.6000000     2.7000000     2.8000000     2.9000000     3.0000000     3.1000000     3.2000000     3.3000000     3.4000000     3.5000000     1.7000000     1.8000000     1.9000000     2.0000000     2.1000000     2.2000000     2.3000000     2.4000000     2.5000000     2.6000000     2.7000000     2.8000000     2.9000000     3.0000000     3.1000000     3.2000000     3.3000000     3.4000000     3.5000000     3.6000000     1.8000000     1.9000000     2.0000000     2.1000000     2.2000000     2.3000000     2.4000000     2.5000000     2.6000000     2.7000000     2.8000000     2.9000000     3.0000000     3.1000000     3.2000000     3.3000000     3.4000000     3.5000000     3.6000000     3.7000000     1.9000000     2.0000000     2.1000000     2.2000000     2.3000000     2.4000000     2.5000000     2.6000000     2.7000000     2.8000000     2.9000000     3.0000000     3.1000000     3.2000000     3.3000000     3.4000000     3.5000000     3.6000000     3.7000000     3.8000000     2.0000000     2.1000000     2.2000000     2.3000000     2.4000000     2.5000000     2.6000000     2.7000000     2.8000000     2.9000000     3.0000000     3.1000000     3.2000000     3.3000000     3.4000000     3.5000000     3.6000000     3.7000000     3.8000000     3.9000000
     2.1000000     2.2000000     2.3000000     2.4000000     2.5000000     2.6000000     2.7000000     2.8000000     2.9000000     3.0000000     3.1000000     3.2000000     3.3000000     3.4000000     3.5000000     3.6000000     3.7000000     3.8000000     3.9000000     4.0000000     2.2000000     2.3000000     2.4000000     2.5000000     2.6000000     2.7000000     2.8000000     2.9000000     3.0000000     3.1000000     3.2000000     3.3000000     3.4000000     3.5000000     3.6000000     3.7000000     3.8000000     3.9000000     4.0000000     4.1000000     2.3000000     2.4000000     2.5000000     2.6000000     2.7000000     2.8000000     2.9000000     3.0000000     3.1000000     3.2000000     3.3000000     3.4000000     3.5000000     3.6000000     3.7000000     3.8000000     3.9000000     4.0000000     4.1000000     4.2000000     2.4000000     2.5000000     2.6000000     2.7000000     2.8000000     2.9000000     3.0000000     3.1000000     3.2000000     3.3000000     3.4000000     3.5000000     3.6000000     3.7000000     3.8000000     3.9000000     4.0000000     4.1000000     4.2000000     4.3000000     2.5000000     2.6000000     2.7000000     2.8000000     2.9000000     3.0000000     3.1000000     3.2000000     3.3000000     3.4000000     3.5000000     3.6000000     3.7000000     3.8000000     3.9000000     4.0000000     4.1000000     4.2000000     4.3000000     4.4000000
     2.6000000     2.7000000     2.8000000     2.9000000     3.0000000     3.1000000     3.2000000     3.3000000     3.4000000     3.5000000     3.6000000     3.7000000     3.8000000     3.9000000     4.0000000     4.1000000     4.2000000     4.3000000     4.4000000     4.5000000     2.7000000     2.8000000     2.9000000     3.0000000     3.1000000     3.2000000     3.3000000     3.4000000     3.5000000     3.6000000     3.7000000     3.8000000     3.9000000     4.0000000     4.1000000     4.2000000     4.3000000     4.4000000     4.5000000     4.6000000     2.8000000     2.9000000     3.0000000     3.1000000     3.2000000     3.3000000     3.4000000     3.5000000     3.6000000     3.7000000     3.8000000     3.9000000     4.0000000     4.1000000     4.2000000     4.3000000     4.4000000     4.5000000     4.6000000     4.7000000     2.9000000     3.0000000     3.1000000     3.2000000     3.3000000     3.4000000     3.5000000     3.6000000     3.7000000     3.8000000     3.9000000     4.0000000     4.1000000     4.2000000     4.3000000     4.4000000     4.5000000     4.6000000     4.7000000     4.8000000     2.9875000     3.0875000     3.1875000     3.2875000     3.3875000     3.4875000     3.5875000     3.6875000     3.7875000     3.8875000     3.9875000     4.0875000     4.1875000     4.2875000     4.3875000     4.4875000     4.5875000     4.6875000     4.7875000     4.8875000