Variables = "x","y", "Velocity_x", "Velocity_y", "Velocity_whole value", "Pressure", "Temperature", "Absolute pressure", "Total pressure"
Zone i=22, j=22
 0.0000000e+000  0.0000000e+000  0.0000000e+000  0.0000000e+000  0.0000000e+000 -2.0391522e-003  1.9999942e+000 -2.0391522e-003 -2.0391522e-003 
 1.2500005e-002  0.0000000e+000  0.0000000e+000  0.0000000e+000  0.0000000e+000 -2.0325168e-003  1.9737358e+000 -2.0325168e-003 -2.0325168e-003 
 3.7500009e-002  0.0000000e+000  0.0000000e+000  0.0000000e+000  0.0000000e+000 -2.0191972e-003  1.9212338e+000 -2.0191972e-003 -2.0191972e-003 
 6.2500015e-002  0.0000000e+000  0.0000000e+000  0.0000000e+000  0.0000000e+000 -2.0130908e-003  1.8688393e+000 -2.0130908e-003 -2.0130908e-003 
 8.7500006e-002  0.0000000e+000  0.0000000e+000  0.0000000e+000  0.0000000e+000 -2.0202389e-003  1.8166151e+000 -2.0202389e-003 -2.0202389e-003 
 1.1250000e-001  0.0000000e+000  0.0000000e+000  0.0000000e+000  0.0000000e+000 -2.0418451e-003  1.7646170e+000 -2.0418451e-003 -2.0418451e-003 
 1.3750000e-001  0.0000000e+000  0.0000000e+000  0.0000000e+000  0.0000000e+000 -2.0762566e-003  1.7128935e+000 -2.0762566e-003 -2.0762566e-003 
 1.6249999e-001  0.0000000e+000  0.0000000e+000  0.0000000e+000  0.0000000e+000 -2.1207994e-003  1.6614853e+000 -2.1207994e-003 -2.1207994e-003 
 1.8750000e-001  0.0000000e+000  0.0000000e+000  0.0000000e+000  0.0000000e+000 -2.1726489e-003  1.6104239e+000 -2.1726489e-003 -2.1726489e-003 
 2.1250005e-001  0.0000000e+000  0.0000000e+000  0.0000000e+000  0.0000000e+000 -2.2291571e-003  1.5597317e+000 -2.2291571e-003 -2.2291571e-003 
 2.3750010e-001  0.0000000e+000  0.0000000e+000  0.0000000e+000  0.0000000e+000 -2.2879138e-003  1.5094219e+000 -2.2879138e-003 -2.2879138e-003 
 2.6250011e-001  0.0000000e+000  0.0000000e+000  0.0000000e+000  0.0000000e+000 -2.3466866e-003  1.4594971e+000 -2.3466866e-003 -2.3466866e-003 
 2.8750008e-001  0.0000000e+000  0.0000000e+000  0.0000000e+000  0.0000000e+000 -2.4033221e-003  1.4099509e+000 -2.4033221e-003 -2.4033221e-003 
 3.1250015e-001  0.0000000e+000  0.0000000e+000  0.0000000e+000  0.0000000e+000 -2.4556250e-003  1.3607671e+000 -2.4556250e-003 -2.4556250e-003 
 3.3750021e-001  0.0000000e+000  0.0000000e+000  0.0000000e+000  0.0000000e+000 -2.5015189e-003  1.3119218e+000 -2.5015189e-003 -2.5015189e-003 
 3.6250019e-001  0.0000000e+000  0.0000000e+000  0.0000000e+000  0.0000000e+000 -2.5389909e-003  1.2633837e+000 -2.5389909e-003 -2.5389909e-003 
 3.8750026e-001  0.0000000e+000  0.0000000e+000  0.0000000e+000  0.0000000e+000 -2.5663709e-003  1.2151153e+000 -2.5663709e-003 -2.5663709e-003 
 4.1250032e-001  0.0000000e+000  0.0000000e+000  0.0000000e+000  0.0000000e+000 -2.5826497e-003  1.1670738e+000 -2.5826497e-003 -2.5826497e-003 
 4.3750030e-001  0.0000000e+000  0.0000000e+000  0.0000000e+000  0.0000000e+000 -2.5876667e-003  1.1192123e+000 -2.5876667e-003 -2.5876667e-003 
 4.6250033e-001  0.0000000e+000  0.0000000e+000  0.0000000e+000  0.0000000e+000 -2.5819270e-003  1.0714797e+000 -2.5819270e-003 -2.5819270e-003 
 4.8750019e-001  0.0000000e+000  0.0000000e+000  0.0000000e+000  0.0000000e+000 -2.5673495e-003  1.0238222e+000 -2.5673495e-003 -2.5673495e-003 
 5.0000000e-001  0.0000000e+000  0.0000000e+000  0.0000000e+000  0.0000000e+000 -2.5600605e-003  1.0000092e+000 -2.5600605e-003 -2.5600605e-003 
 0.0000000e+000  1.5686335e-002  0.0000000e+000  0.0000000e+000  0.0000000e+000 -2.0523118e-003  2.0000000e+000 -2.0523118e-003 -2.0523118e-003 
 1.2617652e-002  1.6264446e-002 -1.8497850e-006  2.7602950e-006  3.3227900e-006 -2.0447357e-003  1.9734614e+000 -2.0447357e-003 -2.0447357e-003 
 3.7851565e-002  1.7420541e-002  1.2234852e-005 -5.2944652e-006  1.3331278e-005 -2.0295845e-003  1.9203906e+000 -2.0295845e-003 -2.0295845e-003 
 6.3080251e-002  1.8576160e-002  4.5597972e-005 -1.2610045e-005  4.7309495e-005 -2.0245791e-003  1.8674260e+000 -2.0245791e-003 -2.0245779e-003 
 8.8298932e-002  1.9730873e-002  9.0226604e-005 -1.7347178e-005  9.1879076e-005 -2.0329934e-003  1.8146429e+000 -2.0329934e-003 -2.0329892e-003 
 1.1350325e-001  2.0884285e-002  1.3911513e-004 -1.9838106e-005  1.4052249e-004 -2.0548427e-003  1.7621098e+000 -2.0548427e-003 -2.0548329e-003 
 1.3868910e-001  2.2036016e-002  1.8701571e-004 -2.0554049e-005  1.8814183e-004 -2.0884089e-003  1.7098881e+000 -2.0884089e-003 -2.0883912e-003 
 1.6385265e-001  2.3185723e-002  2.3034030e-004 -1.9892279e-005  2.3119766e-004 -2.1312071e-003  1.6580316e+000 -2.1312071e-003 -2.1311804e-003 
 1.8899043e-001  2.4333090e-002  2.6682921e-004 -1.8100214e-005  2.6744243e-004 -2.1806245e-003  1.6065845e+000 -2.1806245e-003 -2.1805887e-003 
 2.1409926e-001  2.5477827e-002  2.9508944e-004 -1.5221581e-005  2.9548176e-004 -2.2342207e-003  1.5555815e+000 -2.2342207e-003 -2.2341772e-003 
 2.3917612e-001  2.6619662e-002  3.1413959e-004 -1.1100888e-005  3.1433566e-004 -2.2897893e-003  1.5050465e+000 -2.2897893e-003 -2.2897399e-003 
 2.6421824e-001  2.7758345e-002  3.2307932e-004 -5.4552002e-006  3.2312536e-004 -2.3453094e-003  1.4549921e+000 -2.3453094e-003 -2.3452572e-003 
 2.8922316e-001  2.8893655e-002  3.2095192e-004  1.9906984e-006  3.2095809e-004 -2.3988655e-003  1.4054197e+000 -2.3988655e-003 -2.3988141e-003 
 3.1418872e-001  3.0025382e-002  3.0684617e-004  1.1314065e-005  3.0705470e-004 -2.4485600e-003  1.3563199e+000 -2.4485600e-003 -2.4485129e-003 
 3.3911276e-001  3.1153340e-002  2.8019972e-004  2.2127260e-005  2.8107205e-004 -2.4925771e-003  1.3076736e+000 -2.4925771e-003 -2.4925375e-003 
 3.6399335e-001  3.2277361e-002  2.4128695e-004  3.3384949e-005  2.4358560e-004 -2.5291617e-003  1.2594528e+000 -2.5291617e-003 -2.5291322e-003 
 3.8882893e-001  3.3397287e-002  1.9181165e-004  4.3220549e-005  1.9662076e-004 -2.5568102e-003  1.2116225e+000 -2.5568102e-003 -2.5567908e-003 
 4.1361788e-001  3.4512982e-002  1.3541844e-004  4.8961429e-005  1.4399782e-004 -2.5745209e-003  1.1641415e+000 -2.5745209e-003 -2.5745104e-003 
 4.3835881e-001  3.5624325e-002  7.8154779e-005  4.7403697e-005  9.1407222e-005 -2.5817680e-003  1.1169641e+000 -2.5817680e-003 -2.5817638e-003 
 4.6305066e-001  3.6731206e-002  2.9350784e-005  3.5514538e-005  4.6073321e-005 -2.5776913e-003  1.0700402e+000 -2.5776913e-003 -2.5776902e-003 
 4.8769212e-001  3.7833512e-002  2.1575022e-006  1.2457359e-005  1.2642809e-005 -2.5620465e-003  1.0233169e+000 -2.5620465e-003 -2.5620465e-003 
 5.0000000e-001  3.8383514e-002  0.0000000e+000  0.0000000e+000  0.0000000e+000 -2.5542323e-003  1.0000000e+000 -2.5542323e-003 -2.5542323e-003 
 0.0000000e+000  4.8627645e-002  0.0000000e+000  0.0000000e+000  0.0000000e+000 -2.0798570e-003  2.0000000e+000 -2.0798570e-003 -2.0798570e-003 
 1.2862265e-002  5.0244566e-002  4.2840629e-006 -1.7517959e-005  1.8034192e-005 -2.0702637e-003  1.9728881e+000 -2.0702637e-003 -2.0702635e-003 
 3.8578261e-002  5.3477138e-002  4.8178415e-005 -6.5874177e-005  8.1612299e-005 -2.0510836e-003  1.9186455e+000 -2.0510836e-003 -2.0510803e-003 
 6.4270504e-002  5.6706272e-002  1.2511913e-004 -1.0379845e-004  1.6256972e-004 -2.0481606e-003  1.8645252e+000 -2.0481606e-003 -2.0481474e-003 
 8.9926086e-002  5.9930235e-002  2.1601273e-004 -1.2539701e-004  2.4977172e-004 -2.0589789e-003  1.8106248e+000 -2.0589789e-003 -2.0589477e-003 
 1.1553305e-001  6.3147418e-002  3.0680903e-004 -1.3152984e-004  3.3381415e-004 -2.0811453e-003  1.7570359e+000 -2.0811453e-003 -2.0810897e-003 
 1.4108032e-001  6.6356324e-002  3.8815034e-004 -1.2506386e-004  4.0780101e-004 -2.1128508e-003  1.7038434e+000 -2.1128508e-003 -2.1127677e-003 
 1.6655762e-001  6.9555581e-002  4.5458451e-004 -1.0914134e-004  4.6750286e-004 -2.1520217e-003  1.6511242e+000 -2.1520217e-003 -2.1519125e-003 
 1.9195552e-001  7.2743922e-002  5.0380145e-004 -8.6266140e-005  5.1113381e-004 -2.1964919e-003  1.5989460e+000 -2.1964919e-003 -2.1963613e-003 
 2.1726543e-001  7.5920187e-002  5.3557631e-004 -5.7863581e-005  5.3869304e-004 -2.2442460e-003  1.5473645e+000 -2.2442460e-003 -2.2441009e-003 
 2.4247938e-001  7.9083316e-002  5.5066356e-004 -2.4281442e-005  5.5119867e-004 -2.2934857e-003  1.4964231e+000 -2.2934857e-003 -2.2933339e-003 
 2.6759011e-001  8.2232341e-002  5.4991653e-004  1.4825273e-005  5.5011635e-004 -2.3426069e-003  1.4461511e+000 -2.3426069e-003 -2.3424556e-003 
 2.9259109e-001  8.5366406e-002  5.3377473e-004  5.9806935e-005  5.3711480e-004 -2.3901551e-003  1.3965635e+000 -2.3901551e-003 -2.3900107e-003 
 3.1747657e-001  8.8484704e-002  5.0215726e-004  1.1014670e-004  5.1409553e-004 -2.4348043e-003  1.3476613e+000 -2.4348043e-003 -2.4346721e-003 
 3.4224111e-001  9.1586515e-002  4.5479333e-004  1.6353535e-004  4.8330196e-004 -2.4752310e-003  1.2994325e+000 -2.4752310e-003 -2.4751141e-003 
 3.6687997e-001  9.4671234e-002  3.9190068e-004  2.1510306e-004  4.4705198e-004 -2.5101616e-003  1.2518541e+000 -2.5101616e-003 -2.5100617e-003 
 3.9138901e-001  9.7738311e-002  3.1505383e-004  2.5695356e-004  4.0655141e-004 -2.5383909e-003  1.2048934e+000 -2.5383909e-003 -2.5383083e-003 
 4.1576436e-001  1.0078721e-001  2.2807554e-004  2.7819481e-004  3.5973714e-004 -2.5589115e-003  1.1585107e+000 -2.5589115e-003 -2.5588467e-003 
 4.4000274e-001  1.0381752e-001  1.3808455e-004  2.6561780e-004  2.9936625e-004 -2.5704764e-003  1.1126606e+000 -2.5704764e-003 -2.5704317e-003 
 4.6410143e-001  1.0682891e-001  5.7730991e-005  2.0519762e-004  2.1316409e-004 -2.5696079e-003  1.0672932e+000 -2.5696079e-003 -2.5695851e-003 
 4.8805779e-001  1.0982099e-001  7.5796302e-006  8.4794898e-005  8.5132990e-005 -2.5519566e-003  1.0223554e+000 -2.5519566e-003 -2.5519528e-003 
 5.0000000e-001  1.1131217e-001  0.0000000e+000  0.0000000e+000  0.0000000e+000 -2.5431574e-003  1.0000000e+000 -2.5431574e-003 -2.5431574e-003 
 0.0000000e+000  8.4863111e-002  0.0000000e+000  0.0000000e+000  0.0000000e+000 -2.0806086e-003  2.0000000e+000 -2.0806086e-003 -2.0806086e-003 
 1.3126605e-002  8.7283947e-002  8.1935568e-006 -6.4979271e-005  6.5493819e-005 -2.0669047e-003  1.9721818e+000 -2.0669047e-003 -2.0669026e-003 
 3.9355218e-002  9.2120871e-002  6.8758192e-005 -1.7975854e-004  1.9245992e-004 -2.0395224e-003  1.9164975e+000 -2.0395224e-003 -2.0395038e-003 
 6.5525115e-002  9.6946463e-002  1.6159618e-004 -2.5394798e-004  3.0100317e-004 -2.0343096e-003  1.8609571e+000 -2.0343096e-003 -2.0342642e-003 
 9.1617927e-002  1.0175726e-001  2.5646115e-004 -2.8550011e-004  3.8377420e-004 -2.0458866e-003  1.8056827e+000 -2.0458866e-003 -2.0458130e-003 
 1.1761668e-001  1.0655013e-001  3.3496792e-004 -2.8151987e-004  4.3755793e-004 -2.0699594e-003  1.7507926e+000 -2.0699594e-003 -2.0698637e-003 
 1.4350569e-001  1.1132213e-001  3.8833069e-004 -2.5223839e-004  4.6306039e-004 -2.1041804e-003  1.6964016e+000 -2.1041804e-003 -2.1040733e-003 
 1.6927060e-001  1.1607058e-001  4.1492918e-004 -2.0751418e-004  4.6392711e-004 -2.1463234e-003  1.6426181e+000 -2.1463234e-003 -2.1462159e-003 
 1.9489820e-001  1.2079301e-001  4.1834181e-004 -1.5473051e-004  4.4603969e-004 -2.1942109e-003  1.5895411e+000 -2.1942109e-003 -2.1941115e-003 
 2.2037655e-001  1.2548718e-001  4.0509552e-004 -9.7837350e-005  4.1674275e-004 -2.2459517e-003  1.5372566e+000 -2.2459517e-003 -2.2458648e-003 
 2.4569477e-001  1.3015109e-001  3.8240684e-004 -3.7432266e-005  3.8423453e-004 -2.2999872e-003  1.4858345e+000 -2.2999872e-003 -2.2999134e-003 
 2.7084309e-001  1.3478293e-001  3.5631921e-004  2.8288005e-005  3.5744032e-004 -2.3550359e-003  1.4353257e+000 -2.3550359e-003 -2.3549721e-003 
 2.9581279e-001  1.3938105e-001  3.3047274e-004  1.0193147e-004  3.4583561e-004 -2.4099993e-003  1.3857611e+000 -2.4099993e-003 -2.4099394e-003 
 3.2059616e-001  1.4394405e-001  3.0561112e-004  1.8495184e-004  3.5721890e-004 -2.4638576e-003  1.3371512e+000 -2.4638576e-003 -2.4637938e-003 
 3.4518632e-001  1.4847060e-001  2.7984258e-004  2.7564142e-004  3.9279775e-004 -2.5155551e-003  1.2894877e+000 -2.5155551e-003 -2.5154781e-003 
 3.6957729e-001  1.5295961e-001  2.4958811e-004  3.6735550e-004  4.4412192e-004 -2.5639113e-003  1.2427459e+000 -2.5639113e-003 -2.5638125e-003 
 3.9376399e-001  1.5741022e-001  2.1105474e-004  4.4726371e-004  4.9455935e-004 -2.6076017e-003  1.1968873e+000 -2.6076017e-003 -2.6074795e-003 
 4.1774192e-001  1.6182150e-001  1.6203060e-004  4.9581518e-004  5.2161922e-004 -2.6451915e-003  1.1518639e+000 -2.6451915e-003 -2.6450555e-003 
 4.4150731e-001  1.6619280e-001  1.0410205e-004  4.8709838e-004  4.9809844e-004 -2.6745906e-003  1.1076216e+000 -2.6745906e-003 -2.6744665e-003 
 4.6505722e-001  1.7052360e-001  4.5993045e-005  3.9013874e-004  3.9284042e-004 -2.6913302e-003  1.0641015e+000 -2.6913302e-003 -2.6912531e-003 
 4.8838902e-001  1.7481337e-001  6.3011812e-006  1.7041207e-004  1.7052852e-004 -2.6910163e-003  1.0212433e+000 -2.6910163e-003 -2.6910019e-003 
 5.0000000e-001  1.7694795e-001  0.0000000e+000  0.0000000e+000  0.0000000e+000 -2.6908601e-003  1.0000000e+000 -2.6908601e-003 -2.6908601e-003 
 0.0000000e+000  1.2472210e-001  0.0000000e+000  0.0000000e+000  0.0000000e+000 -2.0361310e-003  2.0000000e+000 -2.0361310e-003 -2.0361310e-003 
 1.3412945e-002  1.2770985e-001  1.1638588e-005 -1.2731389e-004  1.2784476e-004 -2.0209055e-003  1.9712936e+000 -2.0209055e-003 -2.0208973e-003 
 4.0188868e-002  1.3367407e-001  7.1833187e-005 -3.1273166e-004  3.2087552e-004 -1.9905113e-003  1.9138052e+000 -1.9905113e-003 -1.9904599e-003 
 6.6853903e-002  1.3961323e-001  1.4338548e-004 -4.0535661e-004  4.2996905e-004 -1.9871239e-003  1.8564974e+000 -1.9871239e-003 -1.9870314e-003 
 9.3386978e-002  1.4552252e-001  1.8729005e-004 -4.1967526e-004  4.5957032e-004 -2.0042381e-003  1.7995218e+000 -2.0042381e-003 -2.0041324e-003 
 1.1976875e-001  1.5139771e-001  1.8511826e-004 -3.7989652e-004  4.2259926e-004 -2.0355852e-003  1.7430325e+000 -2.0355852e-003 -2.0354958e-003 
 1.4598148e-001  1.5723479e-001  1.3508835e-004 -3.1180109e-004  3.3980698e-004 -2.0777446e-003  1.6871842e+000 -2.0777446e-003 -2.0776868e-003 
 1.7200902e-001  1.6303021e-001  4.7014397e-005 -2.3708321e-004  2.4169982e-004 -2.1280078e-003  1.6321274e+000 -2.1280078e-003 -2.1279787e-003 
 1.9783680e-001  1.6878068e-001 -6.2017833e-005 -1.7001238e-004  1.8097078e-004 -2.1840865e-003  1.5780022e+000 -2.1840865e-003 -2.1840702e-003 
 2.2345170e-001  1.7448333e-001 -1.7201490e-004 -1.1620399e-004  2.0758732e-004 -2.2442848e-003  1.5249320e+000 -2.2442848e-003 -2.2442632e-003 
 2.4884200e-001  1.8013550e-001 -2.6416723e-004 -7.3243093e-005  2.7413297e-004 -2.3074946e-003  1.4730171e+000 -2.3074946e-003 -2.3074572e-003 
 2.7399728e-001  1.8573490e-001 -3.2414449e-004 -3.2815708e-005  3.2580135e-004 -2.3730579e-003  1.4223297e+000 -2.3730579e-003 -2.3730048e-003 
 2.9890853e-001  1.9127955e-001 -3.4426962e-004  1.6089731e-005  3.4464541e-004 -2.4405762e-003  1.3729117e+000 -2.4405762e-003 -2.4405168e-003 
 3.2356790e-001  1.9676767e-001 -3.2442703e-004  8.3408297e-005  3.3497738e-004 -2.5097181e-003  1.3247747e+000 -2.5097181e-003 -2.5096620e-003 
 3.4796864e-001  2.0219778e-001 -2.7168740e-004  1.7415073e-004  3.2271119e-004 -2.5800124e-003  1.2779022e+000 -2.5800124e-003 -2.5799603e-003 
 3.7210500e-001  2.0756860e-001 -1.9873898e-004  2.8496658e-004  3.4742357e-004 -2.6506702e-003  1.2322540e+000 -2.6506702e-003 -2.6506099e-003 
 3.9597246e-001  2.1287915e-001 -1.2134845e-004  4.0153143e-004  4.1946745e-004 -2.7204745e-003  1.1877714e+000 -2.7204745e-003 -2.7203865e-003 
 4.1956714e-001  2.1812858e-001 -5.5095697e-005  4.9704692e-004  5.0009118e-004 -2.7876273e-003  1.1443843e+000 -2.7876273e-003 -2.7875022e-003 
 4.4288605e-001  2.2331619e-001 -1.1519726e-005  5.3220510e-004  5.3232978e-004 -2.8493258e-003  1.1020162e+000 -2.8493258e-003 -2.8491840e-003 
 4.6592727e-001  2.2844160e-001  5.8572555e-006  4.5696003e-004  4.5699757e-004 -2.9014598e-003  1.0605896e+000 -2.9014598e-003 -2.9013555e-003 
 4.8868912e-001  2.3350443e-001  3.8302219e-006  2.1276799e-004  2.1280246e-004 -2.9408464e-003  1.0200295e+000 -2.9408464e-003 -2.9408238e-003 
 5.0000000e-001  2.3602015e-001  0.0000000e+000  0.0000000e+000  0.0000000e+000 -2.9604184e-003  1.0000000e+000 -2.9604184e-003 -2.9604184e-003 
 0.0000000e+000  1.6856694e-001  0.0000000e+000  0.0000000e+000  0.0000000e+000 -1.9207419e-003  2.0000000e+000 -1.9207419e-003 -1.9207419e-003 
 1.3723730e-002  1.7187832e-001  1.5095164e-005 -1.9085708e-004  1.9145310e-004 -1.9106007e-003  1.9701545e+000 -1.9106007e-003 -1.9105824e-003 
 4.1086044e-002  1.7848045e-001  4.7410449e-005 -4.1631280e-004  4.1900371e-004 -1.8903812e-003  1.9103683e+000 -1.8903812e-003 -1.8902934e-003 
 6.8267159e-002  1.8503870e-001  3.6045392e-005 -4.7580883e-004  4.7717220e-004 -1.8992992e-003  1.8508294e+000 -1.8992992e-003 -1.8991854e-003 
 9.5246218e-002  1.9154802e-001 -5.9409027e-005 -4.2139884e-004  4.2556599e-004 -1.9313630e-003  1.7917311e+000 -1.9313630e-003 -1.9312724e-003 
 1.2200428e-001  1.9800387e-001 -2.4760189e-004 -3.1043679e-004  3.9708652e-004 -1.9783066e-003  1.7332776e+000 -1.9783066e-003 -1.9782276e-003 
 1.4852419e-001  2.0440212e-001 -5.1160168e-004 -1.9465787e-004  5.4738286e-004 -2.0352604e-003  1.6756780e+000 -2.0352604e-003 -2.0351107e-003 
 1.7479065e-001  2.1073902e-001 -8.1817078e-004 -1.1210418e-004  8.2581519e-004 -2.0989841e-003  1.6191384e+000 -2.0989841e-003 -2.0986430e-003 
 2.0078997e-001  2.1701135e-001 -1.1259966e-003 -8.3065919e-005  1.1290563e-003 -2.1673278e-003  1.5638494e+000 -2.1673278e-003 -2.1666903e-003 
 2.2651023e-001  2.2321624e-001 -1.3932573e-003 -1.0958873e-004  1.3975606e-003 -2.2392308e-003  1.5099752e+000 -2.2392308e-003 -2.2382543e-003 
 2.5194088e-001  2.2935104e-001 -1.5841682e-003 -1.7786057e-004  1.5941215e-003 -2.3145822e-003  1.4576436e+000 -2.3145822e-003 -2.3133117e-003 
 2.7707285e-001  2.3541370e-001 -1.6739906e-003 -2.6279286e-004  1.6944924e-003 -2.3939430e-003  1.4069394e+000 -2.3939430e-003 -2.3925074e-003 
 3.0189866e-001  2.4140240e-001 -1.6521069e-003 -3.3407426e-004  1.6855452e-003 -2.4782096e-003  1.3579007e+000 -2.4782096e-003 -2.4767891e-003 
 3.2641208e-001  2.4731559e-001 -1.5230549e-003 -3.6291272e-004  1.5656954e-003 -2.5682719e-003  1.3105215e+000 -2.5682719e-003 -2.5670463e-003 
 3.5060790e-001  2.5315201e-001 -1.3055446e-003 -3.2871836e-004  1.3462922e-003 -2.6646722e-003  1.2647562e+000 -2.6646722e-003 -2.6637660e-003 
 3.7448221e-001  2.5891075e-001 -1.0296169e-003 -2.2497604e-004  1.0539095e-003 -2.7673298e-003  1.2205275e+000 -2.7673298e-003 -2.7667745e-003 
 3.9803213e-001  2.6459116e-001 -7.3232024e-004 -6.3718522e-005  7.3508709e-004 -2.8753162e-003  1.1777364e+000 -2.8753162e-003 -2.8750461e-003 
 4.2125565e-001  2.7019271e-001 -4.5212492e-004  1.2183442e-004  4.6825266e-004 -2.9863119e-003  1.1362729e+000 -2.9863119e-003 -2.9862022e-003 
 4.4415170e-001  2.7571514e-001 -2.2237469e-004  2.7700065e-004  3.5521804e-004 -3.0960019e-003  1.0960250e+000 -3.0960019e-003 -3.0959388e-003 
 4.6672016e-001  2.8115845e-001 -6.6424283e-005  3.2832494e-004  3.3497679e-004 -3.2011094e-003  1.0568866e+000 -3.2011094e-003 -3.2010532e-003 
 4.8896125e-001  2.8652272e-001  3.7031992e-007  1.8686078e-004  1.8686114e-004 -3.3079623e-003  1.0187635e+000 -3.3079623e-003 -3.3079449e-003 
 5.0000000e-001  2.8918511e-001  0.0000000e+000  0.0000000e+000  0.0000000e+000 -3.3609958e-003  1.0000000e+000 -3.3609958e-003 -3.3609958e-003 
 0.0000000e+000  2.1679634e-001  0.0000000e+000  0.0000000e+000  0.0000000e+000 -1.6993548e-003  2.0000000e+000 -1.6993548e-003 -1.6993548e-003 
 1.4061587e-002  2.2017691e-001  1.6960921e-005 -2.2574380e-004  2.2638007e-004 -1.7073337e-003  1.9686643e+000 -1.7073337e-003 -1.7073081e-003 
 4.2054009e-002  2.2690667e-001 -3.2688862e-005 -3.8858966e-004  3.8996217e-004 -1.7232172e-003  1.9058981e+000 -1.7232172e-003 -1.7231412e-003 
 6.9775678e-002  2.3357157e-001 -2.4080920e-004 -3.0385729e-004  3.8770906e-004 -1.7658413e-003  1.8435050e+000 -1.7658413e-003 -1.7657661e-003 
 9.7209081e-002  2.4016739e-001 -6.3001912e-004 -9.4271600e-005  6.3703314e-004 -1.8286776e-003  1.7817400e+000 -1.8286776e-003 -1.8284747e-003 
 1.2433868e-001  2.4669042e-001 -1.1769944e-003  1.2827388e-004  1.1839637e-003 -1.9029065e-003  1.7208785e+000 -1.9029065e-003 -1.9022055e-003 
 1.5115078e-001  2.5313732e-001 -1.8249720e-003  2.7626401e-004  1.8457640e-003 -1.9824160e-003  1.6612046e+000 -1.9824160e-003 -1.9807126e-003 
 1.7763348e-001  2.5950521e-001 -2.4986716e-003  2.9574320e-004  2.5161130e-003 -2.0638469e-003  1.6029935e+000 -2.0638469e-003 -2.0606816e-003 
 2.0377655e-001  2.6579159e-001 -3.1180221e-003  1.6880498e-004  3.1225882e-003 -2.1460303e-003  1.5464920e+000 -2.1460303e-003 -2.1411551e-003 
 2.2957148e-001  2.7199447e-001 -3.6098426e-003 -8.9189889e-005  3.6109444e-003 -2.2295804e-003  1.4919002e+000 -2.2295804e-003 -2.2230609e-003 
 2.5501114e-001  2.7811205e-001 -3.9170426e-003 -4.3616671e-004  3.9412514e-003 -2.3164654e-003  1.4393591e+000 -2.3164654e-003 -2.3086986e-003 
 2.8008986e-001  2.8414303e-001 -4.0050624e-003 -8.1250531e-004  4.0866476e-003 -2.4095215e-003  1.3889427e+000 -2.4095215e-003 -2.4011713e-003 
 3.0480334e-001  2.9008633e-001 -3.8653056e-003 -1.1517759e-003  4.0332587e-003 -2.5118995e-003  1.3406570e+000 -2.5118995e-003 -2.5037660e-003 
 3.2914856e-001  2.9594120e-001 -3.5154966e-003 -1.3919559e-003  3.7810393e-003 -2.6265103e-003  1.2944463e+000 -2.6265103e-003 -2.6193622e-003 
 3.5312349e-001  3.0170715e-001 -2.9970978e-003 -1.4860641e-003  3.3452925e-003 -2.7554852e-003  1.2502049e+000 -2.7554852e-003 -2.7498899e-003 
 3.7672719e-001  3.0738395e-001 -2.3701158e-003 -1.4111791e-003  2.7584189e-003 -2.8997774e-003  1.2077900e+000 -2.8997774e-003 -2.8959729e-003 
 3.9995980e-001  3.1297165e-001 -1.7058434e-003 -1.1749961e-003  2.0713564e-003 -3.0587888e-003  1.1670386e+000 -3.0587888e-003 -3.0566435e-003 
 4.2282218e-001  3.1847039e-001 -1.0778067e-003 -8.1936643e-004  1.3538939e-003 -3.2293259e-003  1.1277826e+000 -3.2293259e-003 -3.2284094e-003 
 4.4531602e-001  3.2388058e-001 -5.5154879e-004 -4.2017404e-004  6.9336302e-004 -3.4049605e-003  1.0898632e+000 -3.4049605e-003 -3.4047202e-003 
 4.6744373e-001  3.2920283e-001 -1.7892306e-004 -8.2770734e-005  1.9714070e-004 -3.5839819e-003  1.0531403e+000 -3.5839819e-003 -3.5839626e-003 
 4.8920822e-001  3.3443785e-001 -5.3503359e-006  6.3231135e-005  6.3457090e-005 -3.7845641e-003  1.0175003e+000 -3.7845641e-003 -3.7845620e-003 
 5.0000000e-001  3.3703360e-001  0.0000000e+000  0.0000000e+000  0.0000000e+000 -3.8840214e-003  1.0000000e+000 -3.8840214e-003 -3.8840214e-003 
 0.0000000e+000  2.6984873e-001  0.0000000e+000  0.0000000e+000  0.0000000e+000 -1.3104642e-003  2.0000000e+000 -1.3104642e-003 -1.3104642e-003 
 1.4429348e-002  2.7302751e-001  1.6119278e-005 -1.5809089e-004  1.5891054e-004 -1.3693048e-003  1.9666761e+000 -1.3693048e-003 -1.3692923e-003 
 4.3100506e-002  2.7934420e-001 -2.2969663e-004 -6.9495704e-006  2.2980174e-004 -1.4862217e-003  1.8999842e+000 -1.4862217e-003 -1.4861953e-003 
 7.1390785e-002  2.8557780e-001 -8.5482450e-004  4.3847074e-004  9.6071925e-004 -1.5963408e-003  1.8339028e+000 -1.5963408e-003 -1.5958793e-003 
 9.9289499e-002  2.9172590e-001 -1.8093674e-003  9.3552429e-004  2.0369133e-003 -1.7118286e-003  1.7687783e+000 -1.7118286e-003 -1.7097541e-003 
 1.2678775e-001  2.9778647e-001 -2.9964962e-003  1.2971322e-003  3.2652016e-003 -1.8268219e-003  1.7049881e+000 -1.8268219e-003 -1.8214912e-003 
 1.5387830e-001  3.0375785e-001 -4.2851544e-003  1.4000194e-003  4.5080599e-003 -1.9344824e-003  1.6429142e+000 -1.9344824e-003 -1.9243211e-003 
 1.8055555e-001  3.0963874e-001 -5.5315010e-003  1.1891590e-003  5.6578796e-003 -2.0328972e-003  1.5829109e+000 -2.0328972e-003 -2.0168915e-003 
 2.0681530e-001  3.1542820e-001 -6.5993844e-003  6.7324913e-004  6.6336370e-003 -2.1239952e-003  1.5252749e+000 -2.1239952e-003 -2.1019927e-003 
 2.3265478e-001  3.2112551e-001 -7.3759505e-003 -8.6066313e-005  7.3764524e-003 -2.2121503e-003  1.4702209e+000 -2.2121503e-003 -2.1849442e-003 
 2.5807250e-001  3.2673031e-001 -7.7825505e-003 -9.8869170e-004  7.8451009e-003 -2.3033444e-003  1.4178674e+000 -2.3033444e-003 -2.2725717e-003 
 2.8306806e-001  3.3224249e-001 -7.7813254e-003 -1.9127401e-003  8.0129644e-003 -2.4043852e-003  1.3682336e+000 -2.4043852e-003 -2.3722814e-003 
 3.0764225e-001  3.3766213e-001 -7.3776105e-003 -2.7321596e-003  7.8672636e-003 -2.5221030e-003  1.3212457e+000 -2.5221030e-003 -2.4911561e-003 
 3.3179677e-001  3.4298962e-001 -6.6181296e-003 -3.3340382e-003  7.4104960e-003 -2.6624843e-003  1.2767527e+000 -2.6624843e-003 -2.6350266e-003 
 3.5553411e-001  3.4822547e-001 -5.5851880e-003 -3.6341653e-003  6.6634440e-003 -2.8298441e-003  1.2345479e+000 -2.8298441e-003 -2.8076435e-003 
 3.7885767e-001  3.5337037e-001 -4.3874467e-003 -3.5894988e-003  5.6687025e-003 -3.0263294e-003  1.1943911e+000 -3.0263294e-003 -3.0102623e-003 
 4.0177161e-001  3.5842523e-001 -3.1481262e-003 -3.2064428e-003  4.4935481e-003 -3.2513246e-003  1.1560328e+000 -3.2513246e-003 -3.2412286e-003 
 4.2428064e-001  3.6339095e-001 -1.9909679e-003 -2.5442573e-003  3.2306653e-003 -3.4998872e-003  1.1192348e+000 -3.4998872e-003 -3.4946685e-003 
 4.4638991e-001  3.6826873e-001 -1.0250888e-003 -1.7129958e-003  1.9962869e-003 -3.7620547e-003  1.0837866e+000 -3.7620547e-003 -3.7600622e-003 
 4.6810523e-001  3.7305987e-001 -3.3832138e-004 -8.6504483e-004  9.2885084e-004 -4.0377020e-003  1.0495164e+000 -4.0377020e-003 -4.0372708e-003 
 4.8943257e-001  3.7776560e-001 -1.2673881e-005 -1.8576745e-004  1.8619928e-004 -4.3621650e-003  1.0162983e+000 -4.3621650e-003 -4.3621478e-003 
 5.0000000e-001  3.8009727e-001  0.0000000e+000  0.0000000e+000  0.0000000e+000 -4.5229322e-003  1.0000000e+000 -4.5229322e-003 -4.5229322e-003 
 0.0000000e+000  3.2820630e-001  0.0000000e+000  0.0000000e+000  0.0000000e+000 -6.9792737e-004  2.0000000e+000 -6.9792737e-004 -6.9792737e-004 
 1.4830065e-002  3.3088982e-001 -2.4054111e-006  1.9407349e-004  1.9408840e-004 -8.6524966e-004  1.9639852e+000 -8.6524966e-004 -8.6523080e-004 
 4.4233773e-002  3.3621129e-001 -6.7740481e-004  1.2168174e-003  1.3926672e-003 -1.1970027e-003  1.8920695e+000 -1.1970027e-003 -1.1960330e-003 
 7.3124327e-002  3.4144151e-001 -2.1261999e-003  2.4158000e-003  3.2182008e-003 -1.4349720e-003  1.8212051e+000 -1.4349720e-003 -1.4297937e-003 
 1.0150179e-001  3.4658030e-001 -4.1107042e-003  3.3782877e-003  5.3207814e-003 -1.6306082e-003  1.7518718e+000 -1.6306082e-003 -1.6164528e-003 
 1.2936753e-001  3.5162777e-001 -6.3819336e-003  3.8450703e-003  7.4507478e-003 -1.7957446e-003  1.6845864e+000 -1.7957446e-003 -1.7679879e-003 
 1.5672402e-001  3.5658422e-001 -8.6831944e-003  3.6885398e-003  9.4341505e-003 -1.9277338e-003  1.6198488e+000 -1.9277338e-003 -1.8832322e-003 
 1.8357494e-001  3.6145023e-001 -1.0769868e-002  2.8992582e-003  1.1153284e-002 -2.0298953e-003  1.5580875e+000 -2.0298953e-003 -1.9676974e-003 
 2.0992488e-001  3.6622643e-001 -1.2433808e-002  1.5652860e-003  1.2531947e-002 -2.1112999e-003  1.4996170e+000 -2.1112999e-003 -2.0327750e-003 
 2.3577926e-001  3.7091374e-001 -1.3520281e-002 -1.5312409e-004  1.3521148e-002 -2.1837594e-003  1.4446121e+000 -2.1837594e-003 -2.0923486e-003 
 2.6114431e-001  3.7551314e-001 -1.3937674e-002 -2.0503567e-003  1.4087679e-002 -2.2603341e-003  1.3931012e+000 -2.2603341e-003 -2.1611028e-003 
 2.8602690e-001  3.8002586e-001 -1.3661657e-002 -3.9025280e-003  1.4208117e-002 -2.3543478e-003  1.3449752e+000 -2.3543478e-003 -2.2534125e-003 
 3.1043464e-001  3.8445306e-001 -1.2734225e-002 -5.4940102e-003  1.3868837e-002 -2.4783008e-003  1.3000115e+000 -2.4783008e-003 -2.3821285e-003 
 3.3437547e-001  3.8879621e-001 -1.1257479e-002 -6.6420417e-003  1.3070866e-002 -2.6424886e-003  1.2579062e+000 -2.6424886e-003 -2.5570649e-003 
 3.5785785e-001  3.9305672e-001 -9.3822628e-003 -7.2176657e-003  1.1837295e-002 -2.8539142e-003  1.2183083e+000 -2.8539142e-003 -2.7838533e-003 
 3.8089061e-001  3.9723614e-001 -7.2926185e-003 -7.1612145e-003  1.0220826e-002 -3.1155166e-003  1.1808537e+000 -3.1155166e-003 -3.0632841e-003 
 4.0348291e-001  4.0133601e-001 -5.1871161e-003 -6.4907949e-003  8.3088260e-003 -3.4255523e-003  1.1451944e+000 -3.4255523e-003 -3.3910340e-003 
 4.2564410e-001  4.0535793e-001 -3.2579831e-003 -5.3032418e-003  6.2240525e-003 -3.7754367e-003  1.1110218e+000 -3.7754367e-003 -3.7560672e-003 
 4.4738364e-001  4.0930364e-001 -1.6694844e-003 -3.7670732e-003  4.1204393e-003 -4.1490993e-003  1.0780824e+000 -4.1490993e-003 -4.1406103e-003 
 4.6871129e-001  4.1317487e-001 -5.5027427e-004 -2.1067108e-003  2.1773912e-003 -4.5469371e-003  1.0461874e+000 -4.5469371e-003 -4.5445664e-003 
 4.8963669e-001  4.1697329e-001 -2.0725853e-005 -5.8541354e-004  5.8578030e-004 -5.0274022e-003  1.0152147e+000 -5.0274022e-003 -5.0272308e-003 
 5.0000000e-001  4.1885450e-001  0.0000000e+000  0.0000000e+000  0.0000000e+000 -5.2653528e-003  1.0000000e+000 -5.2653528e-003 -5.2653528e-003 
 0.0000000e+000  3.9239961e-001  0.0000000e+000  0.0000000e+000  0.0000000e+000  1.2554528e-004  2.0000000e+000  1.2554528e-004  1.2554528e-004 
 1.5267033e-002  3.9426467e-001 -7.6079923e-005  1.2581156e-003  1.2604139e-003 -2.4556927e-004  1.9603308e+000 -2.4556927e-004 -2.4477494e-004 
 4.5462597e-002  3.9795476e-001 -1.6349311e-003  4.3219184e-003  4.6208198e-003 -9.7957393e-004  1.8814690e+000 -9.7957393e-004 -9.6889795e-004 
 7.4988723e-002  4.0156561e-001 -4.6251365e-003  6.9422415e-003  8.3418582e-003 -1.4233331e-003  1.8044518e+000 -1.4233331e-003 -1.3885398e-003 
 1.0386074e-001  4.0509880e-001 -8.3941985e-003  8.5589783e-003  1.1988273e-002 -1.7173417e-003  1.7299442e+000 -1.7173417e-003 -1.6454824e-003 
 1.3209429e-001  4.0855598e-001 -1.2414339e-002  8.9265415e-003  1.5290486e-002 -1.9231049e-003  1.6586429e+000 -1.9231049e-003 -1.8062054e-003 