 VARIABLES = "X", "Y", "T_Flos", "V_x", "V_y", "T", "Error(T)", "GradT_x", "GradT_y"
 ZONE I=          21 , J=          21 , DATAPACKING=BLOCK, VARLOCATION=([3-10]=CELLCENTERED)
     0.0000000     0.0250000     0.0500000     0.0750000     0.1000000     0.1250000     0.1500000     0.1750000     0.2000000     0.2250001     0.2500001     0.2750001     0.3000001     0.3250002     0.3500002     0.3750002     0.4000003     0.4250003     0.4500003     0.4750004     0.5000000     0.0000000     0.0254706     0.0509356     0.0763853     0.1018105     0.1272026     0.1525538     0.1778568     0.2031050     0.2282920     0.2534122     0.2784605     0.3034320     0.3283225     0.3531280     0.3778450     0.4024701     0.4270007     0.4514341     0.4757680     0.5000000     0.0000000     0.0259785     0.0519283     0.0778327     0.1036759     0.1294434     0.1551216     0.1806983     0.2061621     0.2315026     0.2567104     0.2817771     0.3066948     0.3314569     0.3560570     0.3804899     0.4047508     0.4288356     0.4527407     0.4764631     0.5000000     0.0000000     0.0265280     0.0529861     0.0793533     0.1056099     0.1317377     0.1577202     0.1835423     0.2091901     0.2346512     0.2599145     0.2849700     0.3098090     0.3344238     0.3588076     0.3829547     0.4068604     0.4305207     0.4539323     0.4770928     0.5000000     0.0000000     0.0271238     0.0541176     0.0809586     0.1076262     0.1341013     0.1603667     0.1864069     0.2122079     0.2377574     0.2630445     0.2880598     0.3127951     0.3372436     0.3613995     0.3852583
     0.4088163     0.4320709     0.4550204     0.4776636     0.5000000     0.0000000     0.0277711     0.0553317     0.0826608     0.1097393     0.1365503     0.1630785     0.1893106     0.2152347     0.2408408     0.2661204     0.2910665     0.3156733     0.3399363     0.3638522     0.3874188     0.4106349     0.4335003     0.4560153     0.4781813     0.5000000     0.0000000     0.0284753     0.0566380     0.0844723     0.1119640     0.1391011     0.1658732     0.1922717     0.2182894     0.2439210     0.2691622     0.2940102     0.3184634     0.3425212     0.3661842     0.3894536     0.4123318     0.4348217     0.4569268     0.4786514     0.5000000     0.0000000     0.0292421     0.0580466     0.0864062     0.1143155     0.1417704     0.1687685     0.1953088     0.2213913     0.2470174     0.2721893     0.2969105     0.3211848     0.3450173     0.3684135     0.3913794     0.4139217     0.4360473     0.4577638     0.4790788     0.5000000     0.0000000     0.0300781     0.0595682     0.0884762     0.1168092     0.1445750     0.1717822     0.1984403     0.2245591     0.2501491     0.2752212     0.2997865     0.3238566     0.3474430     0.3705575     0.3932120     0.4154185     0.4371887     0.4585346     0.4794679     0.5000000     0.0000000     0.0309900     0.0612140     0.0906964     0.1194612     0.1475319     0.1749320     0.2016844     0.2278113     0.2533349     0.2782765
     0.3026570     0.3264968     0.3498156     0.3726326     0.3949665     0.4168353     0.4382564     0.4592469     0.4798229     0.5000000     0.0000000     0.0319852     0.0629961     0.0930814     0.1222875     0.1506583     0.1782355     0.2050589     0.2311661     0.2565930     0.2813735     0.3055400     0.3291232     0.3521522     0.3746547     0.3966572     0.4181845     0.4392605     0.4599076     0.4801474     0.5000000     0.0000000     0.0332322     0.0652131     0.0960278     0.1257549     0.1544674     0.1822328     0.2091139     0.2351690     0.2604525     0.2850151     0.3089039     0.3321629     0.3548335     0.3769542     0.3985610     0.4196877     0.4403661     0.4606260     0.4804953     0.5000000     0.0000000     0.0342963     0.0671136     0.0985671     0.1287615     0.1577930     0.1857494     0.2127115     0.2387536     0.2639441     0.2883463     0.3120185     0.3350148     0.3573853     0.3791769     0.4004327     0.4211932     0.4414961     0.4613766     0.4808677     0.5000000     0.0000000     0.0352071     0.0687528     0.1007748     0.1313982     0.1607362     0.1888920     0.2159597     0.2420252     0.2671675     0.2914588     0.3149657     0.3377495     0.3598671     0.3813708     0.4023093     0.4227277     0.4426681     0.4621697     0.4812690     0.5000000     0.0000000     0.0359897     0.0701764     0.1027138     0.1337402     0.1633808
     0.1917489     0.2189480     0.2450718     0.2702064     0.2944303     0.3178157     0.3404290     0.3623313     0.3835791     0.4042247     0.4243165     0.4438994     0.4630154     0.4817035     0.5000000     0.0000000     0.0366649     0.0714232     0.1044365     0.1358504     0.1657967     0.1943946     0.2217523     0.2479685     0.2731332     0.2973287     0.3206307     0.3431084     0.3648258     0.3858418     0.4062110     0.4259837     0.4452069     0.4639241     0.4821759     0.5000000     0.0000000     0.0372507     0.0725256     0.1059872     0.1377824     0.1680441     0.1968929     0.2244386     0.2507811     0.2760121     0.3002151     0.3234671     0.3458389     0.3673954     0.3881970     0.4082992     0.4277535     0.4466078     0.4649065     0.4826911     0.5000000     0.0000000     0.0377622     0.0735114     0.1074041     0.1395823     0.1701752     0.1993005     0.2270657     0.2535694     0.2789018     0.3031460     0.3263783     0.3486692     0.3700838     0.3906823     0.4105207     0.4296506     0.4481201     0.4659742     0.4832546     0.5000000     0.0000000     0.0382121     0.0744043     0.1087201     0.1412907     0.1722365     0.2016682     0.2296876     0.2563886     0.2818578     0.3061756     0.3294158     0.3516475     0.3729344     0.3933359     0.4129075     0.4317003     0.4497626     0.4671392     0.4838719     0.5000000     0.0000000
     0.0386117     0.0752252     0.1099643     0.1429438     0.1742704     0.2040433     0.2323551     0.2592919     0.2849344     0.3093576     0.3326317     0.3548227     0.3759920     0.3961975     0.4154932     0.4339299     0.4515555     0.4684146     0.4845496     0.5000000     0.0000000     0.0389703     0.0759921     0.1111628     0.1445750     0.1763166     0.2064710     0.2351178     0.2623322     0.2881859     0.3127469     0.3360799     0.3582462     0.3793042     0.3993093     0.4183142     0.4363688     0.4535206     0.4698149     0.4852945     0.5000000
     0.0000000     0.0000000     0.0000000     0.0000000     0.0000000     0.0000000     0.0000000     0.0000000     0.0000000     0.0000000     0.0000000     0.0000000     0.0000000     0.0000000     0.0000000     0.0000000     0.0000000     0.0000000     0.0000000     0.0000000     0.0000000     0.0313727     0.0336851     0.0359971     0.0383076     0.0406159     0.0429212     0.0452228     0.0475201     0.0498123     0.0520990     0.0543796     0.0566537     0.0589209     0.0611807     0.0634327     0.0656767     0.0679124     0.0701395     0.0723578     0.0745670     0.0767670     0.0658826     0.0700379     0.0741885     0.0783319     0.0824655     0.0865870     0.0906942     0.0947852     0.0988581     0.1029113     0.1069433     0.1109527     0.1149383     0.1188990     0.1228337     0.1267418     0.1306223     0.1344746     0.1382982     0.1420926     0.1458573     0.1038436     0.1093717     0.1148853     0.1203800     0.1258516     0.1312964     0.1367109     0.1420919     0.1474367     0.1527425     0.1580072     0.1632285     0.1684047     0.1735341     0.1786155     0.1836475     0.1886292     0.1935598     0.1984385     0.2032649     0.2080386     0.1456006     0.1520236     0.1584158     0.1647718     0.1710867     0.1773561     0.1835758     0.1897422     0.1958519     0.2019021     0.2078901     0.2138138     0.2196712     0.2254606     0.2311808     0.2368306
     0.2424092     0.2479160     0.2533504     0.2587124     0.2640017     0.1915334     0.1983559     0.2051267     0.2118407     0.2184931     0.2250798     0.2315969     0.2380414     0.2444102     0.2507008     0.2569113     0.2630398     0.2690849     0.2750456     0.2809211     0.2867107     0.2924142     0.2980315     0.3035628     0.3090084     0.3143685     0.2420594     0.2487590     0.2553851     0.2619339     0.2684021     0.2747869     0.2810858     0.2872968     0.2934182     0.2994488     0.3053875     0.3112337     0.3169870     0.3226473     0.3282147     0.3336895     0.3390722     0.3443636     0.3495645     0.3546758     0.3596987     0.2976381     0.3036536     0.3095791     0.3154131     0.3211545     0.3268024     0.3323563     0.3378161     0.3431817     0.3484533     0.3536316     0.3587171     0.3637107     0.3686135     0.3734264     0.3781509     0.3827881     0.3873397     0.3918071     0.3961920     0.4004958     0.3587745     0.3634931     0.3681194     0.3726545     0.3770992     0.3814551     0.3857233     0.3899053     0.3940028     0.3980173     0.4019505     0.4058042     0.4095803     0.4132805     0.4169066     0.4204606     0.4239443     0.4273595     0.4307082     0.4339922     0.4372132     0.4260247     0.4287663     0.4314402     0.4340484     0.4365932     0.4390766     0.4415006     0.4438674     0.4461788     0.4484368     0.4506433
     0.4528002     0.4549093     0.4569723     0.4589908     0.4609667     0.4629014     0.4647965     0.4666535     0.4684738     0.4702588     0.5000000     0.5000000     0.5000000     0.5000000     0.5000000     0.5000000     0.5000000     0.5000000     0.5000000     0.5000000     0.5000000     0.5000000     0.5000000     0.5000000     0.5000000     0.5000000     0.5000000     0.5000000     0.5000000     0.5000000     0.5000000     0.5933851     0.5892635     0.5852970     0.5814753     0.5777884     0.5742273     0.5707837     0.5674498     0.5642183     0.5610825     0.5580361     0.5550733     0.5521886     0.5493769     0.5466334     0.5439536     0.5413334     0.5387688     0.5362560     0.5337917     0.5313727     0.6727625     0.6654313     0.6584163     0.6516929     0.6452385     0.6390327     0.6330568     0.6272933     0.6217266     0.6163419     0.6111257     0.6060656     0.6011499     0.5963680     0.5917098     0.5871661     0.5827284     0.5783885     0.5741388     0.5699724     0.5658827     0.7402333     0.7306295     0.7214789     0.7127440     0.7043906     0.6963878     0.6887074     0.6813239     0.6742138     0.6673555     0.6607293     0.6543171     0.6481022     0.6420689     0.6362032     0.6304916     0.6249219     0.6194825     0.6141629     0.6089530     0.6038436     0.7975835     0.7866439     0.7762523     0.7663620     0.7569311     0.7479213
     0.7392984     0.7310308     0.7230901     0.7154500     0.7080868     0.7009784     0.6941048     0.6874472     0.6809886     0.6747131     0.6686059     0.6626533     0.6568427     0.6511622     0.6456007     0.8463311     0.8349798     0.8242188     0.8139980     0.8042724     0.7950012     0.7861474     0.7776776     0.7695612     0.7617703     0.7542795     0.7470653     0.7401063     0.7333827     0.7268763     0.7205700     0.7144485     0.7084971     0.7027023     0.6970516     0.6915334     0.8877667     0.8769113     0.8666316     0.8568804     0.8476149     0.8387961     0.8303892     0.8223620     0.8146854     0.8073328     0.8002796     0.7935036     0.7869842     0.7807023     0.7746404     0.7687824     0.7631131     0.7576187     0.7522861     0.7471035     0.7420594     0.9229868     0.9135199     0.9045577     0.8960609     0.8879939     0.8803243     0.8730227     0.8660620     0.8594176     0.8530668     0.8469889     0.8411646     0.8355763     0.8302077     0.8250437     0.8200703     0.8152745     0.8106442     0.8061683     0.8018361     0.7976381     0.9529240     0.9457287     0.9389137     0.9324521     0.9263191     0.9204921     0.9149501     0.9096740     0.9046463     0.8998504     0.8952715     0.8908954     0.8867092     0.8827009     0.8788593     0.8751740     0.8716353     0.8682342     0.8649622     0.8618115     0.8587745     0.9783705
     0.9743282     0.9704951     0.9668582     0.9634055     0.9601259     0.9570089     0.9540449     0.9512248     0.9485403     0.9459834     0.9435468     0.9412236     0.9390073     0.9368919     0.9348719     0.9329417     0.9310964     0.9293314     0.9276422     0.9260247     1.0000000     1.0000000     1.0000000     1.0000000     1.0000000     1.0000000     1.0000000     1.0000000     1.0000000     1.0000000     1.0000000     1.0000000     1.0000000     1.0000000     1.0000000     1.0000000     1.0000000     1.0000000     1.0000000     1.0000000     1.0000000
     1.9700000     1.9200000     1.8700000     1.8100000     1.7600000     1.7100000     1.6600000     1.6100000     1.5600000     1.5100000     1.4500000     1.4100000     1.3600000     1.3100000     1.2600000     1.2100000     1.1600000     1.1200000     1.0700000     1.0200000     1.9700000     1.9200000     1.8600000     1.8100000     1.7600000     1.7000000     1.6500000     1.6000000     1.5500000     1.5000000     1.4500000     1.4000000     1.3500000     1.3000000     1.2500000     1.2000000     1.1600000     1.1100000     1.0700000     1.0200000     1.9700000     1.9200000     1.8600000     1.8100000     1.7500000     1.7000000     1.6400000     1.5900000     1.5400000     1.4900000     1.4400000     1.3900000     1.3400000     1.2900000     1.2400000     1.2000000     1.1500000     1.1100000     1.0600000     1.0200000     1.9700000     1.9100000     1.8600000     1.8000000     1.7400000     1.6900000     1.6300000     1.5800000     1.5200000     1.4700000     1.4200000     1.3700000     1.3200000     1.2800000     1.2300000     1.1900000     1.1400000     1.1000000     1.0600000     1.0200000     1.9700000     1.9100000     1.8500000     1.7900000     1.7300000     1.6800000     1.6200000     1.5600000     1.5100000     1.4600000     1.4100000     1.3600000     1.3100000     1.2600000     1.2200000     1.1800000     1.1400000     1.1000000     1.0600000     1.0200000
     1.9700000     1.9100000     1.8400000     1.7800000     1.7200000     1.6600000     1.6000000     1.5500000     1.4900000     1.4400000     1.3900000     1.3400000     1.2900000     1.2500000     1.2100000     1.1700000     1.1300000     1.0900000     1.0500000     1.0200000     1.9700000     1.9000000     1.8300000     1.7700000     1.7000000     1.6400000     1.5800000     1.5300000     1.4700000     1.4200000     1.3700000     1.3200000     1.2800000     1.2300000     1.1900000     1.1600000     1.1200000     1.0800000     1.0500000     1.0200000     1.9600000     1.8900000     1.8200000     1.7500000     1.6800000     1.6200000     1.5600000     1.5000000     1.4400000     1.3900000     1.3400000     1.3000000     1.2600000     1.2200000     1.1800000     1.1500000     1.1100000     1.0800000     1.0500000     1.0200000     1.9600000     1.8800000     1.8000000     1.7300000     1.6600000     1.5900000     1.5300000     1.4700000     1.4200000     1.3700000     1.3200000     1.2800000     1.2400000     1.2000000     1.1700000     1.1400000     1.1000000     1.0700000     1.0400000     1.0100000     1.9600000     1.8700000     1.7800000     1.7000000     1.6300000     1.5600000     1.4900000     1.4400000     1.3800000     1.3400000     1.2900000     1.2600000     1.2200000     1.1900000     1.1600000     1.1300000     1.1000000     1.0700000     1.0400000     1.0100000
     1.9500000     1.8500000     1.7500000     1.6700000     1.5900000     1.5200000     1.4500000     1.4000000     1.3500000     1.3100000     1.2700000     1.2400000     1.2100000     1.1800000     1.1500000     1.1200000     1.0900000     1.0700000     1.0400000     1.0100000     1.9400000     1.8300000     1.7200000     1.6300000     1.5500000     1.4800000     1.4200000     1.3700000     1.3300000     1.2900000     1.2600000     1.2300000     1.2000000     1.1700000     1.1400000     1.1200000     1.0900000     1.0600000     1.0400000     1.0100000     1.9400000     1.8100000     1.7000000     1.6000000     1.5200000     1.4500000     1.4000000     1.3600000     1.3200000     1.2900000     1.2600000     1.2300000     1.2000000     1.1800000     1.1500000     1.1200000     1.0900000     1.0700000     1.0400000     1.0100000     1.9300000     1.8000000     1.6900000     1.5900000     1.5100000     1.4500000     1.4000000     1.3700000     1.3400000     1.3100000     1.2800000     1.2600000     1.2300000     1.2000000     1.1700000     1.1400000     1.1000000     1.0700000     1.0400000     1.0100000     1.9300000     1.8000000     1.6900000     1.5900000     1.5200000     1.4700000     1.4300000     1.4000000     1.3700000     1.3500000     1.3300000     1.3000000     1.2700000     1.2300000     1.2000000     1.1600000     1.1200000     1.0900000     1.0500000     1.0200000
     1.9300000     1.8000000     1.7000000     1.6100000     1.5400000     1.5000000     1.4600000     1.4400000     1.4200000     1.4100000     1.3900000     1.3600000     1.3300000     1.2900000     1.2500000     1.2000000     1.1500000     1.1100000     1.0600000     1.0200000     1.9400000     1.8100000     1.7200000     1.6400000     1.5800000     1.5400000     1.5200000     1.5000000     1.4900000     1.4800000     1.4600000     1.4400000     1.4100000     1.3700000     1.3200000     1.2600000     1.2000000     1.1400000     1.0800000     1.0300000     1.9400000     1.8400000     1.7500000     1.6900000     1.6400000     1.6100000     1.5900000     1.5700000     1.5600000     1.5500000     1.5500000     1.5300000     1.5000000     1.4700000     1.4100000     1.3500000     1.2700000     1.1900000     1.1100000     1.0400000     1.9600000     1.8800000     1.8100000     1.7600000     1.7300000     1.6900000     1.6700000     1.6600000     1.6500000     1.6400000     1.6300000     1.6200000     1.6000000     1.5700000     1.5300000     1.4600000     1.3700000     1.2700000     1.1600000     1.0500000     1.9700000     1.9200000     1.8700000     1.8300000     1.8000000     1.7700000     1.7500000     1.7300000     1.7200000     1.7100000     1.7000000     1.6900000     1.6800000     1.6700000     1.6400000     1.5800000     1.4900000     1.3700000     1.2300000     1.0700000
    -0.0000019     0.0000122     0.0000456     0.0000902     0.0001390     0.0001870     0.0002300     0.0002670     0.0002950     0.0003140     0.0003230     0.0003210     0.0003070     0.0002800     0.0002410     0.0001920     0.0001350     0.0000782     0.0000294     0.0000022     0.0000043     0.0000482     0.0001250     0.0002160     0.0003070     0.0003880     0.0004550     0.0005040     0.0005360     0.0005510     0.0005500     0.0005340     0.0005020     0.0004550     0.0003920     0.0003150     0.0002280     0.0001380     0.0000577     0.0000076     0.0000082     0.0000688     0.0001620     0.0002560     0.0003350     0.0003880     0.0004150     0.0004180     0.0004050     0.0003820     0.0003560     0.0003300     0.0003060     0.0002800     0.0002500     0.0002110     0.0001620     0.0001040     0.0000460     0.0000063     0.0000116     0.0000718     0.0001430     0.0001870     0.0001850     0.0001350     0.0000470    -0.0000620    -0.0001720    -0.0002640    -0.0003240    -0.0003440    -0.0003240    -0.0002720    -0.0001990    -0.0001210    -0.0000551    -0.0000115     0.0000059     0.0000038     0.0000151     0.0000474     0.0000360    -0.0000594    -0.0002480    -0.0005120    -0.0008180    -0.0011300    -0.0013900    -0.0015800    -0.0016700    -0.0016500    -0.0015200    -0.0013100    -0.0010300    -0.0007320    -0.0004520    -0.0002220    -0.0000664     0.0000004
     0.0000170    -0.0000327    -0.0002410    -0.0006300    -0.0011800    -0.0018200    -0.0025000    -0.0031200    -0.0036100    -0.0039200    -0.0040100    -0.0038700    -0.0035200    -0.0030000    -0.0023700    -0.0017100    -0.0010800    -0.0005520    -0.0001790    -0.0000053     0.0000161    -0.0002300    -0.0008550    -0.0018100    -0.0030000    -0.0042900    -0.0055300    -0.0066000    -0.0073800    -0.0077800    -0.0077800    -0.0073800    -0.0066200    -0.0055900    -0.0043900    -0.0031500    -0.0019900    -0.0010300    -0.0003380    -0.0000127    -0.0000024    -0.0006770    -0.0021300    -0.0041100    -0.0063800    -0.0086800    -0.0108000    -0.0124000    -0.0135000    -0.0139000    -0.0137000    -0.0127000    -0.0113000    -0.0093800    -0.0072900    -0.0051900    -0.0032600    -0.0016700    -0.0005500    -0.0000207    -0.0000761    -0.0016300    -0.0046300    -0.0083900    -0.0124000    -0.0162000    -0.0195000    -0.0219000    -0.0232000    -0.0234000    -0.0226000    -0.0207000    -0.0180000    -0.0148000    -0.0114000    -0.0079800    -0.0049600    -0.0025100    -0.0008190    -0.0000285    -0.0002540    -0.0035100    -0.0092300    -0.0159000    -0.0227000    -0.0287000    -0.0334000    -0.0367000    -0.0381000    -0.0377000    -0.0357000    -0.0322000    -0.0276000    -0.0224000    -0.0169000    -0.0117000    -0.0071700    -0.0035700    -0.0011300    -0.0000249
    -0.0007410    -0.0071800    -0.0176000    -0.0291000    -0.0399000    -0.0491000    -0.0559000    -0.0601000    -0.0614000    -0.0598000    -0.0558000    -0.0497000    -0.0421000    -0.0336000    -0.0251000    -0.0172000    -0.0103000    -0.0050800    -0.0015900    -0.0000306    -0.0015700    -0.0130000    -0.0303000    -0.0484000    -0.0649000    -0.0785000    -0.0883000    -0.0939000    -0.0951000    -0.0922000    -0.0855000    -0.0757000    -0.0637000    -0.0506000    -0.0374000    -0.0254000    -0.0151000    -0.0073500    -0.0022700    -0.0000459    -0.0025600    -0.0191000    -0.0431000    -0.0675000    -0.0895000    -0.1080000    -0.1210000    -0.1290000    -0.1320000    -0.1290000    -0.1200000    -0.1070000    -0.0910000    -0.0727000    -0.0540000    -0.0367000    -0.0219000    -0.0106000    -0.0032900    -0.0000730    -0.0039700    -0.0252000    -0.0534000    -0.0815000    -0.1070000    -0.1290000    -0.1470000    -0.1590000    -0.1650000    -0.1640000    -0.1560000    -0.1420000    -0.1230000    -0.1000000    -0.0756000    -0.0521000    -0.0315000    -0.0155000    -0.0048400    -0.0001310    -0.0071700    -0.0332000    -0.0613000    -0.0880000    -0.1130000    -0.1350000    -0.1550000    -0.1720000    -0.1830000    -0.1880000    -0.1850000    -0.1740000    -0.1550000    -0.1300000    -0.1020000    -0.0721000    -0.0448000    -0.0225000    -0.0072200    -0.0002500
    -0.0151000    -0.0479000    -0.0688000    -0.0858000    -0.1020000    -0.1190000    -0.1380000    -0.1560000    -0.1730000    -0.1850000    -0.1910000    -0.1890000    -0.1780000    -0.1570000    -0.1280000    -0.0953000    -0.0618000    -0.0324000    -0.0109000    -0.0004970    -0.0311000    -0.0714000    -0.0727000    -0.0686000    -0.0668000    -0.0703000    -0.0801000    -0.0954000    -0.1140000    -0.1340000    -0.1520000    -0.1650000    -0.1680000    -0.1610000    -0.1420000    -0.1140000    -0.0793000    -0.0445000    -0.0161000    -0.0011200    -0.0505000    -0.0834000    -0.0440000    -0.0068500     0.0204000     0.0366000     0.0414000     0.0353000     0.0196000    -0.0035300    -0.0315000    -0.0608000    -0.0868000    -0.1050000    -0.1110000    -0.1040000    -0.0827000    -0.0527000    -0.0219000    -0.0021900    -0.0240000     0.0148000     0.1170000     0.1880000     0.2350000     0.2660000     0.2830000     0.2860000     0.2770000     0.2560000     0.2240000     0.1840000     0.1360000     0.0867000     0.0396000     0.0008320    -0.0240000    -0.0319000    -0.0246000    -0.0081100     0.3380000     0.4940000     0.6020000     0.6620000     0.6960000     0.7170000     0.7270000     0.7290000     0.7210000     0.7040000     0.6750000     0.6340000     0.5800000     0.5110000     0.4290000     0.3350000     0.2360000     0.1400000     0.0594000     0.0068400
     0.0000028    -0.0000053    -0.0000126    -0.0000173    -0.0000198    -0.0000206    -0.0000199    -0.0000181    -0.0000152    -0.0000111    -0.0000055     0.0000020     0.0000113     0.0000221     0.0000334     0.0000432     0.0000490     0.0000474     0.0000355     0.0000125    -0.0000175    -0.0000659    -0.0001040    -0.0001250    -0.0001320    -0.0001250    -0.0001090    -0.0000863    -0.0000579    -0.0000243     0.0000148     0.0000598     0.0001100     0.0001640     0.0002150     0.0002570     0.0002780     0.0002660     0.0002050     0.0000848    -0.0000650    -0.0001800    -0.0002540    -0.0002860    -0.0002820    -0.0002520    -0.0002080    -0.0001550    -0.0000978    -0.0000374     0.0000283     0.0001020     0.0001850     0.0002760     0.0003670     0.0004470     0.0004960     0.0004870     0.0003900     0.0001700    -0.0001270    -0.0003130    -0.0004050    -0.0004200    -0.0003800    -0.0003120    -0.0002370    -0.0001700    -0.0001160    -0.0000732    -0.0000328     0.0000161     0.0000834     0.0001740     0.0002850     0.0004020     0.0004970     0.0005320     0.0004570     0.0002130    -0.0001910    -0.0004160    -0.0004760    -0.0004210    -0.0003100    -0.0001950    -0.0001120    -0.0000831    -0.0001100    -0.0001780    -0.0002630    -0.0003340    -0.0003630    -0.0003290    -0.0002250    -0.0000637     0.0001220     0.0002770     0.0003280     0.0001870
    -0.0002260    -0.0003890    -0.0003040    -0.0000943     0.0001280     0.0002760     0.0002960     0.0001690    -0.0000892    -0.0004360    -0.0008130    -0.0011500    -0.0013900    -0.0014900    -0.0014100    -0.0011700    -0.0008190    -0.0004200    -0.0000828     0.0000632    -0.0001580    -0.0000070     0.0004380     0.0009360     0.0013000     0.0014000     0.0011900     0.0006730    -0.0000861    -0.0009890    -0.0019100    -0.0027300    -0.0033300    -0.0036300    -0.0035900    -0.0032100    -0.0025400    -0.0017100    -0.0008650    -0.0001860     0.0001940     0.0012200     0.0024200     0.0033800     0.0038500     0.0036900     0.0029000     0.0015700    -0.0001530    -0.0020500    -0.0039000    -0.0054900    -0.0066400    -0.0072200    -0.0071600    -0.0064900    -0.0053000    -0.0037700    -0.0021100    -0.0005850     0.0012600     0.0043200     0.0069400     0.0085600     0.0089300     0.0080200     0.0059800     0.0030700    -0.0003600    -0.0039300    -0.0072700    -0.0100000    -0.0119000    -0.0128000    -0.0126000    -0.0114000    -0.0093900    -0.0067600    -0.0039000    -0.0011600     0.0039500     0.0114000     0.0165000     0.0189000     0.0186000     0.0159000     0.0114000     0.0056400    -0.0007050    -0.0069900    -0.0126000    -0.0171000    -0.0200000    -0.0212000    -0.0207000    -0.0186000    -0.0152000    -0.0109000    -0.0063100    -0.0019100
     0.0106000     0.0273000     0.0368000     0.0397000     0.0373000     0.0308000     0.0215000     0.0105000    -0.0009810    -0.0119000    -0.0212000    -0.0284000    -0.0328000    -0.0343000    -0.0330000    -0.0293000    -0.0236000    -0.0169000    -0.0096900    -0.0029300     0.0243000     0.0580000     0.0740000     0.0767000     0.0699000     0.0566000     0.0390000     0.0195000    -0.0002710    -0.0186000    -0.0340000    -0.0455000    -0.0524000    -0.0545000    -0.0521000    -0.0458000    -0.0367000    -0.0260000    -0.0149000    -0.0045100     0.0435000     0.0989000     0.1220000     0.1240000     0.1120000     0.0898000     0.0625000     0.0324000     0.0022000    -0.0259000    -0.0497000    -0.0678000    -0.0789000    -0.0826000    -0.0793000    -0.0699000    -0.0562000    -0.0399000    -0.0229000    -0.0069800     0.0663000     0.1440000     0.1740000     0.1750000     0.1570000     0.1270000     0.0900000     0.0493000     0.0076100    -0.0320000    -0.0668000    -0.0942000    -0.1120000    -0.1200000    -0.1170000    -0.1050000    -0.0850000    -0.0610000    -0.0354000    -0.0110000     0.0929000     0.1890000     0.2230000     0.2200000     0.1980000     0.1620000     0.1180000     0.0684000     0.0163000    -0.0353000    -0.0829000    -0.1230000    -0.1510000    -0.1670000    -0.1670000    -0.1530000    -0.1280000    -0.0935000    -0.0554000    -0.0175000
     0.1270000     0.2320000     0.2600000     0.2520000     0.2260000     0.1870000     0.1400000     0.0858000     0.0267000    -0.0347000    -0.0948000    -0.1490000    -0.1930000    -0.2210000    -0.2310000    -0.2200000    -0.1890000    -0.1430000    -0.0875000    -0.0284000     0.1770000     0.2670000     0.2770000     0.2590000     0.2290000     0.1910000     0.1460000     0.0938000     0.0346000    -0.0306000    -0.0991000    -0.1670000    -0.2280000    -0.2750000    -0.3020000    -0.3030000    -0.2740000    -0.2180000    -0.1390000    -0.0474000     0.2420000     0.2770000     0.2530000     0.2230000     0.1920000     0.1600000     0.1240000     0.0820000     0.0325000    -0.0255000    -0.0918000    -0.1640000    -0.2380000    -0.3060000    -0.3580000    -0.3830000    -0.3710000    -0.3150000    -0.2150000    -0.0779000     0.2920000     0.2240000     0.1620000     0.1280000     0.1050000     0.0856000     0.0651000     0.0411000     0.0114000    -0.0263000    -0.0740000    -0.1330000    -0.2030000    -0.2790000    -0.3550000    -0.4160000    -0.4430000    -0.4180000    -0.3210000    -0.1340000     0.1900000     0.0778000     0.0335000     0.0191000     0.0124000     0.0077000     0.0032500    -0.0021000    -0.0093700    -0.0197000    -0.0343000    -0.0546000    -0.0824000    -0.1190000    -0.1640000    -0.2160000    -0.2650000    -0.2930000    -0.2740000    -0.1740000